# vtk DataFile Version 3.1
Results produced by Sim2024
ASCII
DATASET STRUCTURED_GRID
DIMENSIONS 151 51 1
POINTS 7701 DOUBLE
0.00000000e+00 0.00000000e+00 0.0
2.00000000e-02 0.00000000e+00 0.0
4.00000000e-02 0.00000000e+00 0.0
6.00000000e-02 0.00000000e+00 0.0
8.00000000e-02 0.00000000e+00 0.0
1.00000000e-01 0.00000000e+00 0.0
1.20000000e-01 0.00000000e+00 0.0
1.40000000e-01 0.00000000e+00 0.0
1.60000000e-01 0.00000000e+00 0.0
1.80000000e-01 0.00000000e+00 0.0
2.00000000e-01 0.00000000e+00 0.0
2.20000000e-01 0.00000000e+00 0.0
2.40000000e-01 0.00000000e+00 0.0
2.60000000e-01 0.00000000e+00 0.0
2.80000000e-01 0.00000000e+00 0.0
3.00000000e-01 0.00000000e+00 0.0
3.20000000e-01 0.00000000e+00 0.0
3.40000000e-01 0.00000000e+00 0.0
3.60000000e-01 0.00000000e+00 0.0
3.80000000e-01 0.00000000e+00 0.0
4.00000000e-01 0.00000000e+00 0.0
4.20000000e-01 0.00000000e+00 0.0
4.40000000e-01 0.00000000e+00 0.0
4.60000000e-01 0.00000000e+00 0.0
4.80000000e-01 0.00000000e+00 0.0
5.00000000e-01 0.00000000e+00 0.0
5.20000000e-01 0.00000000e+00 0.0
5.40000000e-01 0.00000000e+00 0.0
5.60000000e-01 0.00000000e+00 0.0
5.80000000e-01 0.00000000e+00 0.0
6.00000000e-01 0.00000000e+00 0.0
6.20000000e-01 0.00000000e+00 0.0
6.40000000e-01 0.00000000e+00 0.0
6.60000000e-01 0.00000000e+00 0.0
6.80000000e-01 0.00000000e+00 0.0
7.00000000e-01 0.00000000e+00 0.0
7.20000000e-01 0.00000000e+00 0.0
7.40000000e-01 0.00000000e+00 0.0
7.60000000e-01 0.00000000e+00 0.0
7.80000000e-01 0.00000000e+00 0.0
8.00000000e-01 0.00000000e+00 0.0
8.20000000e-01 0.00000000e+00 0.0
8.40000000e-01 0.00000000e+00 0.0
8.60000000e-01 0.00000000e+00 0.0
8.80000000e-01 0.00000000e+00 0.0
9.00000000e-01 0.00000000e+00 0.0
9.20000000e-01 0.00000000e+00 0.0
9.40000000e-01 0.00000000e+00 0.0
9.60000000e-01 0.00000000e+00 0.0
9.80000000e-01 0.00000000e+00 0.0
1.00000000e+00 0.00000000e+00 0.0
1.02000000e+00 8.13906484e-03 0.0
1.04000000e+00 1.58947323e-02 0.0
1.06000000e+00 2.32742947e-02 0.0
1.08000000e+00 3.02845199e-02 0.0
1.10000000e+00 3.69316877e-02 0.0
1.12000000e+00 4.32216214e-02 0.0
1.14000000e+00 4.91597176e-02 0.0
1.16000000e+00 5.47509713e-02 0.0
1.18000000e+00 6.00000000e-02 0.0
1.20000000e+00 6.49110641e-02 0.0
1.22000000e+00 6.94880858e-02 0.0
1.24000000e+00 7.37346662e-02 0.0
1.26000000e+00 7.76541003e-02 0.0
1.28000000e+00 8.12493902e-02 0.0
1.30000000e+00 8.45232579e-02 0.0
1.32000000e+00 8.74781552e-02 0.0
1.34000000e+00 9.01162738e-02 0.0
1.36000000e+00 9.24395537e-02 0.0
1.38000000e+00 9.44496900e-02 0.0
1.40000000e+00 9.61481397e-02 0.0
1.42000000e+00 9.75361267e-02 0.0
1.44000000e+00 9.86146465e-02 0.0
1.46000000e+00 9.93844697e-02 0.0
1.48000000e+00 9.98461447e-02 0.0
1.50000000e+00 1.00000000e-01 0.0
1.52000000e+00 9.98461447e-02 0.0
1.54000000e+00 9.93844697e-02 0.0
1.56000000e+00 9.86146465e-02 0.0
1.58000000e+00 9.75361267e-02 0.0
1.60000000e+00 9.61481397e-02 0.0
1.62000000e+00 9.44496900e-02 0.0
1.64000000e+00 9.24395537e-02 0.0
1.66000000e+00 9.01162738e-02 0.0
1.68000000e+00 8.74781552e-02 0.0
1.70000000e+00 8.45232579e-02 0.0
1.72000000e+00 8.12493902e-02 0.0
1.74000000e+00 7.76541003e-02 0.0
1.76000000e+00 7.37346662e-02 0.0
1.78000000e+00 6.94880858e-02 0.0
1.80000000e+00 6.49110641e-02 0.0
1.82000000e+00 6.00000000e-02 0.0
1.84000000e+00 5.47509713e-02 0.0
1.86000000e+00 4.91597176e-02 0.0
1.88000000e+00 4.32216214e-02 0.0
1.90000000e+00 3.69316877e-02 0.0
1.92000000e+00 3.02845199e-02 0.0
1.94000000e+00 2.32742947e-02 0.0
1.96000000e+00 1.58947323e-02 0.0
1.98000000e+00 8.13906484e-03 0.0
2.00000000e+00 0.00000000e+00 0.0
2.02000000e+00 0.00000000e+00 0.0
2.04000000e+00 0.00000000e+00 0.0
2.06000000e+00 0.00000000e+00 0.0
2.08000000e+00 0.00000000e+00 0.0
2.10000000e+00 0.00000000e+00 0.0
2.12000000e+00 0.00000000e+00 0.0
2.14000000e+00 0.00000000e+00 0.0
2.16000000e+00 0.00000000e+00 0.0
2.18000000e+00 0.00000000e+00 0.0
2.20000000e+00 0.00000000e+00 0.0
2.22000000e+00 0.00000000e+00 0.0
2.24000000e+00 0.00000000e+00 0.0
2.26000000e+00 0.00000000e+00 0.0
2.28000000e+00 0.00000000e+00 0.0
2.30000000e+00 0.00000000e+00 0.0
2.32000000e+00 0.00000000e+00 0.0
2.34000000e+00 0.00000000e+00 0.0
2.36000000e+00 0.00000000e+00 0.0
2.38000000e+00 0.00000000e+00 0.0
2.40000000e+00 0.00000000e+00 0.0
2.42000000e+00 0.00000000e+00 0.0
2.44000000e+00 0.00000000e+00 0.0
2.46000000e+00 0.00000000e+00 0.0
2.48000000e+00 0.00000000e+00 0.0
2.50000000e+00 0.00000000e+00 0.0
2.52000000e+00 0.00000000e+00 0.0
2.54000000e+00 0.00000000e+00 0.0
2.56000000e+00 0.00000000e+00 0.0
2.58000000e+00 0.00000000e+00 0.0
2.60000000e+00 0.00000000e+00 0.0
2.62000000e+00 0.00000000e+00 0.0
2.64000000e+00 0.00000000e+00 0.0
2.66000000e+00 0.00000000e+00 0.0
2.68000000e+00 0.00000000e+00 0.0
2.70000000e+00 0.00000000e+00 0.0
2.72000000e+00 0.00000000e+00 0.0
2.74000000e+00 0.00000000e+00 0.0
2.76000000e+00 0.00000000e+00 0.0
2.78000000e+00 0.00000000e+00 0.0
2.80000000e+00 0.00000000e+00 0.0
2.82000000e+00 0.00000000e+00 0.0
2.84000000e+00 0.00000000e+00 0.0
2.86000000e+00 0.00000000e+00 0.0
2.88000000e+00 0.00000000e+00 0.0
2.90000000e+00 0.00000000e+00 0.0
2.92000000e+00 0.00000000e+00 0.0
2.94000000e+00 0.00000000e+00 0.0
2.96000000e+00 0.00000000e+00 0.0
2.98000000e+00 0.00000000e+00 0.0
3.00000000e+00 0.00000000e+00 0.0
0.00000000e+00 2.00000000e-02 0.0
2.00000000e-02 2.00000000e-02 0.0
4.00000000e-02 2.00000000e-02 0.0
6.00000000e-02 2.00000000e-02 0.0
8.00000000e-02 2.00000000e-02 0.0
1.00000000e-01 2.00000000e-02 0.0
1.20000000e-01 2.00000000e-02 0.0
1.40000000e-01 2.00000000e-02 0.0
1.60000000e-01 2.00000000e-02 0.0
1.80000000e-01 2.00000000e-02 0.0
2.00000000e-01 2.00000000e-02 0.0
2.20000000e-01 2.00000000e-02 0.0
2.40000000e-01 2.00000000e-02 0.0
2.60000000e-01 2.00000000e-02 0.0
2.80000000e-01 2.00000000e-02 0.0
3.00000000e-01 2.00000000e-02 0.0
3.20000000e-01 2.00000000e-02 0.0
3.40000000e-01 2.00000000e-02 0.0
3.60000000e-01 2.00000000e-02 0.0
3.80000000e-01 2.00000000e-02 0.0
4.00000000e-01 2.00000000e-02 0.0
4.20000000e-01 2.00000000e-02 0.0
4.40000000e-01 2.00000000e-02 0.0
4.60000000e-01 2.00000000e-02 0.0
4.80000000e-01 2.00000000e-02 0.0
5.00000000e-01 2.00000000e-02 0.0
5.20000000e-01 2.00000000e-02 0.0
5.40000000e-01 2.00000000e-02 0.0
5.60000000e-01 2.00000000e-02 0.0
5.80000000e-01 2.00000000e-02 0.0
6.00000000e-01 2.00000000e-02 0.0
6.20000000e-01 2.00000000e-02 0.0
6.40000000e-01 2.00000000e-02 0.0
6.60000000e-01 2.00000000e-02 0.0
6.80000000e-01 2.00000000e-02 0.0
7.00000000e-01 2.00000000e-02 0.0
7.20000000e-01 2.00000000e-02 0.0
7.40000000e-01 2.00000000e-02 0.0
7.60000000e-01 2.00000000e-02 0.0
7.80000000e-01 2.00000000e-02 0.0
8.00000000e-01 2.00000000e-02 0.0
8.20000000e-01 2.00000000e-02 0.0
8.40000000e-01 2.00000000e-02 0.0
8.60000000e-01 2.00000000e-02 0.0
8.80000000e-01 2.00000000e-02 0.0
9.00000000e-01 2.00000000e-02 0.0
9.20000000e-01 2.00000000e-02 0.0
9.40000000e-01 2.00000000e-02 0.0
9.60000000e-01 2.00000000e-02 0.0
9.80000000e-01 2.00000000e-02 0.0
1.00000000e+00 2.00000000e-02 0.0
1.02000000e+00 2.79762835e-02 0.0
1.04000000e+00 3.55768376e-02 0.0
1.06000000e+00 4.28088088e-02 0.0
1.08000000e+00 4.96788295e-02 0.0
1.10000000e+00 5.61930539e-02 0.0
1.12000000e+00 6.23571890e-02 0.0
1.14000000e+00 6.81765232e-02 0.0
1.16000000e+00 7.36559519e-02 0.0
1.18000000e+00 7.88000000e-02 0.0
1.20000000e+00 8.36128428e-02 0.0
1.22000000e+00 8.80983241e-02 0.0
1.24000000e+00 9.22599729e-02 0.0
1.26000000e+00 9.61010183e-02 0.0
1.28000000e+00 9.96244024e-02 0.0
1.30000000e+00 1.02832793e-01 0.0
1.32000000e+00 1.05728592e-01 0.0
1.34000000e+00 1.08313948e-01 0.0
1.36000000e+00 1.10590763e-01 0.0
1.38000000e+00 1.12560696e-01 0.0
1.40000000e+00 1.14225177e-01 0.0
1.42000000e+00 1.15585404e-01 0.0
1.44000000e+00 1.16642354e-01 0.0
1.46000000e+00 1.17396780e-01 0.0
1.48000000e+00 1.17849222e-01 0.0
1.50000000e+00 1.18000000e-01 0.0
1.52000000e+00 1.17849222e-01 0.0
1.54000000e+00 1.17396780e-01 0.0
1.56000000e+00 1.16642354e-01 0.0
1.58000000e+00 1.15585404e-01 0.0
1.60000000e+00 1.14225177e-01 0.0
1.62000000e+00 1.12560696e-01 0.0
1.64000000e+00 1.10590763e-01 0.0
1.66000000e+00 1.08313948e-01 0.0
1.68000000e+00 1.05728592e-01 0.0
1.70000000e+00 1.02832793e-01 0.0
1.72000000e+00 9.96244024e-02 0.0
1.74000000e+00 9.61010183e-02 0.0
1.76000000e+00 9.22599729e-02 0.0
1.78000000e+00 8.80983241e-02 0.0
1.80000000e+00 8.36128428e-02 0.0
1.82000000e+00 7.88000000e-02 0.0
1.84000000e+00 7.36559519e-02 0.0
1.86000000e+00 6.81765232e-02 0.0
1.88000000e+00 6.23571890e-02 0.0
1.90000000e+00 5.61930539e-02 0.0
1.92000000e+00 4.96788295e-02 0.0
1.94000000e+00 4.28088088e-02 0.0
1.96000000e+00 3.55768376e-02 0.0
1.98000000e+00 2.79762835e-02 0.0
2.00000000e+00 2.00000000e-02 0.0
2.02000000e+00 2.00000000e-02 0.0
2.04000000e+00 2.00000000e-02 0.0
2.06000000e+00 2.00000000e-02 0.0
2.08000000e+00 2.00000000e-02 0.0
2.10000000e+00 2.00000000e-02 0.0
2.12000000e+00 2.00000000e-02 0.0
2.14000000e+00 2.00000000e-02 0.0
2.16000000e+00 2.00000000e-02 0.0
2.18000000e+00 2.00000000e-02 0.0
2.20000000e+00 2.00000000e-02 0.0
2.22000000e+00 2.00000000e-02 0.0
2.24000000e+00 2.00000000e-02 0.0
2.26000000e+00 2.00000000e-02 0.0
2.28000000e+00 2.00000000e-02 0.0
2.30000000e+00 2.00000000e-02 0.0
2.32000000e+00 2.00000000e-02 0.0
2.34000000e+00 2.00000000e-02 0.0
2.36000000e+00 2.00000000e-02 0.0
2.38000000e+00 2.00000000e-02 0.0
2.40000000e+00 2.00000000e-02 0.0
2.42000000e+00 2.00000000e-02 0.0
2.44000000e+00 2.00000000e-02 0.0
2.46000000e+00 2.00000000e-02 0.0
2.48000000e+00 2.00000000e-02 0.0
2.50000000e+00 2.00000000e-02 0.0
2.52000000e+00 2.00000000e-02 0.0
2.54000000e+00 2.00000000e-02 0.0
2.56000000e+00 2.00000000e-02 0.0
2.58000000e+00 2.00000000e-02 0.0
2.60000000e+00 2.00000000e-02 0.0
2.62000000e+00 2.00000000e-02 0.0
2.64000000e+00 2.00000000e-02 0.0
2.66000000e+00 2.00000000e-02 0.0
2.68000000e+00 2.00000000e-02 0.0
2.70000000e+00 2.00000000e-02 0.0
2.72000000e+00 2.00000000e-02 0.0
2.74000000e+00 2.00000000e-02 0.0
2.76000000e+00 2.00000000e-02 0.0
[...]
POINT_DATA 7701
SCALARS rho DOUBLE
LOOKUP_TABLE default
8.11016680e-01
8.11021100e-01
8.11035786e-01
8.11060989e-01
8.11096384e-01
8.11142127e-01
8.11198644e-01
8.11266426e-01
8.11346018e-01
8.11438049e-01
8.11543257e-01
8.11662491e-01
8.11796722e-01
8.11947045e-01
8.12114703e-01
8.12301088e-01
8.12507768e-01
8.12736500e-01
8.12989252e-01
8.13268230e-01
8.13575903e-01
8.13915042e-01
8.14288757e-01
8.14700540e-01
8.15154329e-01
8.15654563e-01
8.16206267e-01
8.16815144e-01
8.17487686e-01
8.18231315e-01
8.19054555e-01
8.19967237e-01
8.20980773e-01
8.22108487e-01
8.23366053e-01
8.24772059e-01
8.26348766e-01
8.28123124e-01
8.30128203e-01
8.32405237e-01
8.35006670e-01
8.38000865e-01
8.41479574e-01
8.45569776e-01
8.50451263e-01
8.56375697e-01
8.63667226e-01
8.72636191e-01
8.82752533e-01
8.92227751e-01
9.13006016e-01
9.08629329e-01
8.68754832e-01
8.38223703e-01
8.17752441e-01
8.00763262e-01
7.84622674e-01
7.68960006e-01
7.53848539e-01
7.39268033e-01
7.25138721e-01
7.11389661e-01
6.97960796e-01
6.84810435e-01
6.71909250e-01
6.59230097e-01
6.46752786e-01
6.34461564e-01
6.22342960e-01
6.10388135e-01
5.98591176e-01
5.86945159e-01
5.75443561e-01
5.64080583e-01
5.52859161e-01
5.41783246e-01
5.30848359e-01
5.20054444e-01
5.09414337e-01
4.98951573e-01
4.88676517e-01
4.78602071e-01
4.68769515e-01
4.60592767e-01
4.41977984e-01
4.76922498e-01
6.14318480e-01
7.16058056e-01
7.26952118e-01
7.21298180e-01
7.22798943e-01
7.32165957e-01
7.44589765e-01
7.57839245e-01
7.71818792e-01
7.86728279e-01
8.02637802e-01
8.19468424e-01
8.36191253e-01
8.49330794e-01
8.73241808e-01
8.81416769e-01
8.60504369e-01
8.45253938e-01
8.37373599e-01
8.31990403e-01
8.27265148e-01
8.23054002e-01
8.19402773e-01
8.16245093e-01
8.13486726e-01
8.11056134e-01
8.08902431e-01
8.06986176e-01
8.05275115e-01
8.03742163e-01
8.02364575e-01
8.01123302e-01
8.00002283e-01
7.98987816e-01
7.98068093e-01
7.97232853e-01
7.96473146e-01
7.95781132e-01
7.95149914e-01
7.94573396e-01
7.94046167e-01
7.93563409e-01
7.93120818e-01
7.92714538e-01
7.92341104e-01
7.91997395e-01
7.91680594e-01
7.91388187e-01
7.91117921e-01
7.90867696e-01
7.90635566e-01
7.90419751e-01
7.90218626e-01
7.90030698e-01
7.89854589e-01
7.89689027e-01
7.89532837e-01
7.89384925e-01
7.89244331e-01
7.89110046e-01
7.88982085e-01
7.88857230e-01
7.88748670e-01
7.88635686e-01
7.88568660e-01
8.11014414e-01
8.11018757e-01
8.11033270e-01
8.11058316e-01
8.11093556e-01
8.11139126e-01
8.11195443e-01
8.11262997e-01
8.11342331e-01
8.11434074e-01
8.11538959e-01
8.11657833e-01
8.11791661e-01
8.11941537e-01
8.12108694e-01
8.12294523e-01
8.12500583e-01
8.12728623e-01
8.12980603e-01
8.13258716e-01
8.13565422e-01
8.13903475e-01
8.14275968e-01
8.14686374e-01
8.15138606e-01
8.15637074e-01
8.16186768e-01
8.16793349e-01
8.17463256e-01
8.18203847e-01
8.19023565e-01
8.19932141e-01
8.20940858e-01
8.22062875e-01
8.23313650e-01
8.24711489e-01
8.26278270e-01
8.28040422e-01
8.30030284e-01
8.32288023e-01
8.34864465e-01
8.37825352e-01
8.41257924e-01
8.45280933e-01
8.50058786e-01
8.55815015e-01
8.62825348e-01
8.71327230e-01
8.80740484e-01
8.88023629e-01
9.00903378e-01
8.94554834e-01
8.62005401e-01
8.35862364e-01
8.17174128e-01
8.01037868e-01
7.85483560e-01
7.70324224e-01
7.55668815e-01
7.41508654e-01
7.27766640e-01
7.14372749e-01
7.01274553e-01
6.88435740e-01
6.75830392e-01
6.63435458e-01
6.51232701e-01
6.39207290e-01
6.27347277e-01
6.15643157e-01
6.04091125e-01
5.92685961e-01
5.81420149e-01
5.70288781e-01
5.59298000e-01
5.48452344e-01
5.37745622e-01
5.27178913e-01
5.16761904e-01
5.06516180e-01
4.96455414e-01
4.86591352e-01
4.76954172e-01
4.68825339e-01
4.50920392e-01
4.83825475e-01
6.17464179e-01
7.18243745e-01
7.30463807e-01
7.26647351e-01
7.28547293e-01
7.37396743e-01
7.49098419e-01
7.61716784e-01
7.75080884e-01
7.89304150e-01
8.04380442e-01
8.20181609e-01
8.35750588e-01
8.47634275e-01
8.66265032e-01
8.73969223e-01
8.59659588e-01
8.47430996e-01
8.40134501e-01
8.34793236e-01
8.30100145e-01
8.25946809e-01
8.22346264e-01
8.19224949e-01
8.16492695e-01
8.14081855e-01
8.11943743e-01
8.10040148e-01
8.08339571e-01
8.06815391e-01
8.05445174e-01
8.04210131e-01
8.03094410e-01
8.02084475e-01
8.01168646e-01
8.00336765e-01
7.99579962e-01
7.98890469e-01
7.98261448e-01
7.97686849e-01
7.97161298e-01
7.96680011e-01
7.96238710e-01
7.95833561e-01
7.95461117e-01
7.95118270e-01
7.94802210e-01
7.94510401e-01
7.94240552e-01
7.93990566e-01
7.93758522e-01
7.93542663e-01
7.93341378e-01
7.93153187e-01
7.92976723e-01
7.92810724e-01
7.92654022e-01
7.92505530e-01
7.92364292e-01
7.92229299e-01
7.92100578e-01
7.91974887e-01
7.91865238e-01
7.91752667e-01
7.91686692e-01
8.11007358e-01
8.11011571e-01
8.11025794e-01
8.11050554e-01
8.11085499e-01
8.11130722e-01
8.11186621e-01
8.11253683e-01
8.11332445e-01
8.11423532e-01
8.11527669e-01
8.11645696e-01
8.11778568e-01
8.11927366e-01
8.12093312e-01
8.12277782e-01
8.12482316e-01
8.12708644e-01
8.12958702e-01
8.13234655e-01
8.13538932e-01
8.13874247e-01
8.14243649e-01
8.14650557e-01
8.15098818e-01
8.15592766e-01
8.16137295e-01
8.16737951e-01
8.17401032e-01
8.18133718e-01
8.18944232e-01
8.19842024e-01
8.20838017e-01
8.21944906e-01
8.23177535e-01
8.24553391e-01
8.26093237e-01
8.27821955e-01
8.29769674e-01
8.31973311e-01
8.34478704e-01
8.37343582e-01
8.40641626e-01
8.44467612e-01
8.48942587e-01
8.54212279e-01
8.60419558e-01
8.67633394e-01
8.75292697e-01
8.79620709e-01
8.82176113e-01
8.73640670e-01
8.52022085e-01
8.32438913e-01
8.16318410e-01
8.01383484e-01
7.86729100e-01
7.72408223e-01
7.58535644e-01
7.45091169e-01
7.32000657e-01
7.19201842e-01
7.06655187e-01
6.94334254e-01
6.82219285e-01
6.70292927e-01
6.58539717e-01
6.46946369e-01
6.35503366e-01
6.24203075e-01
6.13041355e-01
6.02014311e-01
5.91117359e-01
5.80346461e-01
5.69703301e-01
5.59193649e-01
5.48820576e-01
5.38588649e-01
5.28502710e-01
5.18583443e-01
5.08848919e-01
4.99321626e-01
4.90004939e-01
4.81660410e-01
4.64278677e-01
4.93917241e-01
6.21223211e-01
7.19920439e-01
7.34321580e-01
7.33593558e-01
7.36330964e-01
7.44412673e-01
7.55021011e-01
7.66684305e-01
7.79111592e-01
7.92259005e-01
8.06001085e-01
8.20161704e-01
8.34058714e-01
8.44716731e-01
8.56205820e-01
8.62472246e-01
8.57194801e-01
8.49818286e-01
8.43716394e-01
8.38595901e-01
8.34091741e-01
8.30149716e-01
8.26721088e-01
8.23722635e-01
8.21078342e-01
8.18733284e-01
8.16645757e-01
8.14781545e-01
8.13112162e-01
8.11613063e-01
8.10263326e-01
8.09045223e-01
8.07943643e-01
8.06945625e-01
8.06039930e-01
8.05216717e-01
8.04467375e-01
8.03784347e-01
8.03160961e-01
8.02591303e-01
8.02070108e-01
8.01592681e-01
8.01154818e-01
8.00752747e-01
8.00383072e-01
8.00042728e-01
7.99728946e-01
7.99439193e-01
7.99171165e-01
7.98922778e-01
7.98692144e-01
7.98477536e-01
7.98277362e-01
7.98090157e-01
7.97914567e-01
7.97749340e-01
7.97593316e-01
7.97445413e-01
7.97304677e-01
7.97170089e-01
7.97041688e-01
7.96916156e-01
7.96806587e-01
7.96695945e-01
7.96631836e-01
8.10995027e-01
8.10999138e-01
8.11013101e-01
8.11037541e-01
8.11072105e-01
8.11116854e-01
8.11172167e-01
8.11238522e-01
8.11316450e-01
8.11406566e-01
8.11509585e-01
8.11626333e-01
8.11757750e-01
8.11904901e-01
8.12068987e-01
8.12251359e-01
8.12453532e-01
8.12677202e-01
8.12924269e-01
8.13196854e-01
8.13497332e-01
8.13828360e-01
8.14192912e-01
8.14594322e-01
8.15036332e-01
8.15523153e-01
8.16059527e-01
8.16650813e-01
8.17303083e-01
8.18023233e-01
8.18819130e-01
8.19699775e-01
8.20675514e-01
8.21758295e-01
8.22961980e-01
8.24302747e-01
8.25799577e-01
8.27474886e-01
8.29355298e-01
8.31472611e-01
8.33864926e-01
8.36577822e-01
8.39665130e-01
8.43187948e-01
8.47208848e-01
8.51774104e-01
8.56867195e-01
8.62350466e-01
8.67758770e-01
8.70380594e-01
8.69333081e-01
8.60637489e-01
8.44603095e-01
8.28804797e-01
8.14406645e-01
8.00481980e-01
7.86720016e-01
7.73249267e-01
7.60148493e-01
7.47384283e-01
7.34898054e-01
7.22647282e-01
7.10606040e-01
6.98757315e-01
6.87086925e-01
6.75581254e-01
6.64227685e-01
6.53015785e-01
6.41938478e-01
6.30991555e-01
6.20169494e-01
6.09468437e-01
5.98887979e-01
5.88425027e-01
5.78074008e-01
5.67839406e-01
5.57734575e-01
5.47768060e-01
5.37943962e-01
5.28279082e-01
5.18800939e-01
5.09554693e-01
5.00505921e-01
4.91785537e-01
4.74890315e-01
5.03268747e-01
6.24233146e-01
7.18876422e-01
7.34659571e-01
7.36207054e-01
7.39903621e-01
7.47691089e-01
7.57621439e-01
7.68556438e-01
7.80198443e-01
7.92418604e-01
8.05021952e-01
8.17794462e-01
8.30360942e-01
8.40640203e-01
8.49336007e-01
8.54112802e-01
8.52419431e-01
8.48203602e-01
8.43598958e-01
8.39188487e-01
8.35171807e-01
8.31603670e-01
8.28447640e-01
8.25642848e-01
8.23139932e-01
8.20901930e-01
8.18897604e-01
8.17098851e-01
8.15481106e-01
8.14023270e-01
8.12707021e-01
8.11516443e-01
8.10437688e-01
8.09458755e-01
8.08569179e-01
8.07759698e-01
8.07022150e-01
8.06349331e-01
8.05734843e-01
8.05172987e-01
8.04658675e-01
8.04187356e-01
8.03754946e-01
8.03357771e-01
8.02992520e-01
8.02656199e-01
8.02346101e-01
8.02059759e-01
8.01794918e-01
8.01549530e-01
8.01321731e-01
8.01109812e-01
8.00912202e-01
8.00727447e-01
8.00554208e-01
8.00391240e-01
8.00237391e-01
8.00091579e-01
7.99952847e-01
7.99820163e-01
7.99693555e-01
7.99569633e-01
7.99461758e-01
7.99352445e-01
7.99288711e-01
8.10977236e-01
8.10981250e-01
8.10994929e-01
8.11018949e-01
8.11052968e-01
8.11097030e-01
8.11151496e-01
8.11216833e-01
8.11293562e-01
8.11382283e-01
8.11483697e-01
8.11598610e-01
8.11727942e-01
8.11872732e-01
8.12034154e-01
8.12213524e-01
8.12412318e-01
8.12632188e-01
8.12874978e-01
8.13142751e-01
8.13437807e-01
8.13762716e-01
8.14120350e-01
8.14513923e-01
8.14947031e-01
8.15423708e-01
8.15948487e-01
8.16526467e-01
8.17163400e-01
8.17865792e-01
8.18641015e-01
8.19497451e-01
8.20444657e-01
8.21493561e-01
8.22656701e-01
8.23948496e-01
8.25385575e-01
8.26987130e-01
8.28775300e-01
8.30775497e-01
8.33016477e-01
8.35529804e-01
8.38347644e-01
8.41497194e-01
8.44987444e-01
8.48780986e-01
8.52742109e-01
8.56573582e-01
8.59848961e-01
8.60837914e-01
8.58180264e-01
8.49931417e-01
8.37157867e-01
8.24024781e-01
8.11278286e-01
7.98576863e-01
7.85884843e-01
7.73360709e-01
7.61080448e-01
7.49031487e-01
7.37182342e-01
7.25511783e-01
7.14007837e-01
7.02661493e-01
6.91463212e-01
6.80403640e-01
6.69474190e-01
6.58668156e-01
6.47980924e-01
6.37409786e-01
6.26951269e-01
6.16602941e-01
6.06365231e-01
5.96236992e-01
5.86214538e-01
5.76300778e-01
5.66508073e-01
5.56848519e-01
5.47328149e-01
5.37951865e-01
5.28758191e-01
5.19813313e-01
5.11041535e-01
5.02106774e-01
4.86840430e-01
5.16134155e-01
6.29313574e-01
7.17198974e-01
7.33966902e-01
7.37376932e-01
7.42115269e-01
7.49920828e-01
7.59334029e-01
7.69531676e-01
7.80305758e-01
7.91519963e-01
8.02947126e-01
8.14322524e-01
8.25404897e-01
8.34852888e-01
8.42179569e-01
8.46264403e-01
8.46318341e-01
8.44212203e-01
8.41146545e-01
8.37755126e-01
8.34417039e-01
8.31313332e-01
8.28484857e-01
8.25919908e-01
8.23598967e-01
8.21502166e-01
8.19609256e-01
8.17899671e-01
8.16353770e-01
8.14954381e-01
8.13686239e-01
8.12535688e-01
8.11490555e-01
8.10540056e-01
8.09674662e-01
8.08885875e-01
8.08166152e-01
8.07508788e-01
8.06907777e-01
8.06357733e-01
8.05853826e-01
8.05391713e-01
8.04967482e-01
8.04577605e-01
8.04218888e-01
8.03888439e-01
8.03583634e-01
8.03302082e-01
8.03041600e-01
8.02800194e-01
8.02576044e-01
8.02367479e-01
8.02172961e-01
8.01991068e-01
8.01820487e-01
8.01659994e-01
8.01508455e-01
8.01364800e-01
8.01228076e-01
8.01097248e-01
8.00972334e-01
8.00849914e-01
8.00743307e-01
8.00634874e-01
8.00571447e-01
8.10954063e-01
8.10957980e-01
8.10971352e-01
8.10994869e-01
8.11028201e-01
8.11071383e-01
8.11124765e-01
8.11188798e-01
8.11263988e-01
8.11350918e-01
8.11450270e-01
8.11562827e-01
8.11689479e-01
8.11831236e-01
8.11989234e-01
8.12164746e-01
8.12359200e-01
8.12574188e-01
8.12811489e-01
8.13073084e-01
8.13361183e-01
8.13678246e-01
8.14027015e-01
8.14410551e-01
8.14832266e-01
8.15295975e-01
8.15805942e-01
8.16366943e-01
8.16984335e-01
8.17664132e-01
8.18413096e-01
8.19238845e-01
8.20149965e-01
8.21156143e-01
8.22268306e-01
8.23498765e-01
8.24861343e-01
8.26371455e-01
8.28046063e-01
8.29903368e-01
8.31961977e-01
8.34238975e-01
8.36745779e-01
8.39480116e-01
8.42410521e-01
8.45447400e-01
8.48396610e-01
8.50908872e-01
8.52586701e-01
8.52394308e-01
8.49107844e-01
8.41588993e-01
8.30918456e-01
8.19586897e-01
8.08149553e-01
7.96534761e-01
7.84816129e-01
7.73154622e-01
7.61630127e-01
7.50249747e-01
7.39003704e-01
7.27886315e-01
7.16895413e-01
7.06028113e-01
6.95279523e-01
6.84644490e-01
6.74118247e-01
6.63697106e-01
6.53378667e-01
6.43161789e-01
6.33044996e-01
6.23027834e-01
6.13112019e-01
6.03298304e-01
5.93585692e-01
5.83978003e-01
5.74487318e-01
5.65128581e-01
5.55911752e-01
5.46837142e-01
5.37942580e-01
5.29295135e-01
5.20786756e-01
5.11807943e-01
4.98825019e-01
5.30504603e-01
6.35443883e-01
7.14999553e-01
7.32427500e-01
7.37419195e-01
7.43166094e-01
7.51128260e-01
7.60180795e-01
7.69767699e-01
7.79778078e-01
7.90096395e-01
8.00501007e-01
8.10720479e-01
8.20555408e-01
8.29164813e-01
8.35762697e-01
8.39593623e-01
8.40561255e-01
8.39736073e-01
8.37832382e-01
8.35374846e-01
8.32739541e-01
8.30147875e-01
8.27696880e-01
8.25418779e-01
8.23320744e-01
8.21399508e-01
8.19646148e-01
8.18048742e-01
8.16594296e-01
8.15270186e-01
8.14064595e-01
8.12966497e-01
8.11965741e-01
8.11053057e-01
8.10220053e-01
8.09459197e-01
8.08763686e-01
8.08127393e-01
8.07544808e-01
8.07010953e-01
8.06521331e-01
8.06071874e-01
8.05658896e-01
8.05279059e-01
8.04929331e-01
8.04606954e-01
8.04309419e-01
8.04034435e-01
8.03779907e-01
8.03543917e-01
8.03324708e-01
8.03120664e-01
8.02930296e-01
8.02752226e-01
8.02585176e-01
8.02427957e-01
8.02279461e-01
8.02138641e-01
8.02004560e-01
8.01876192e-01
8.01753555e-01
8.01633256e-01
8.01528419e-01
8.01422090e-01
8.01360028e-01
8.10925611e-01
8.10929423e-01
8.10942444e-01
8.10965362e-01
8.10997860e-01
8.11039968e-01
8.11092022e-01
8.11154458e-01
8.11227764e-01
8.11312504e-01
8.11409334e-01
8.11519008e-01
8.11642385e-01
8.11780436e-01
8.11934252e-01
8.12105055e-01
8.12294213e-01
8.12503248e-01
8.12733859e-01
8.12987931e-01
8.13267562e-01
8.13575083e-01
8.13913082e-01
8.14284434e-01
8.14692337e-01
8.15140342e-01
8.15632399e-01
8.16172905e-01
8.16766748e-01
8.17419374e-01
8.18136838e-01
8.18925875e-01
8.19793964e-01
8.20749381e-01
8.21801249e-01
8.22959536e-01
8.24234997e-01
8.25638983e-01
8.27183012e-01
8.28877905e-01
8.30732239e-01
8.32749436e-01
8.34922647e-01
8.37225931e-01
8.39599761e-01
8.41928248e-01
8.44006076e-01
8.45501056e-01
8.46058222e-01
8.45049625e-01
8.41494598e-01
8.34613105e-01
8.25350869e-01
8.15341270e-01
8.04998058e-01
7.94369467e-01
7.83562718e-01
7.72720074e-01
7.61921399e-01
7.51190551e-01
7.40534907e-01
7.29961068e-01
7.19474435e-01
7.09077853e-01
6.98771611e-01
6.88554467e-01
6.78425140e-01
6.68382869e-01
6.58427623e-01
6.48560067e-01
6.38780674e-01
6.29090838e-01
6.19493720e-01
6.09991984e-01
6.00587103e-01
5.91284309e-01
5.82096129e-01
5.73039447e-01
5.64130010e-01
5.55374263e-01
5.46802802e-01
5.38465932e-01
5.30235307e-01
5.21544723e-01
5.11551935e-01
5.46247283e-01
6.42612901e-01
7.12903537e-01
7.30524234e-01
7.36921460e-01
7.43608823e-01
7.51775373e-01
7.60574340e-01
7.69664728e-01
7.79018762e-01
7.88551249e-01
7.98069571e-01
8.07321891e-01
8.16124679e-01
8.23957199e-01
8.30048930e-01
8.33764433e-01
8.35261958e-01
8.35279188e-01
8.34265672e-01
8.32617219e-01
8.30649233e-01
8.28578005e-01
8.26527748e-01
8.24561885e-01
8.22710862e-01
8.20987245e-01
8.19393424e-01
8.17926009e-01
8.16578583e-01
8.15343393e-01
8.14212240e-01
8.13176903e-01
8.12229426e-01
8.11362273e-01
8.10568429e-01
8.09841460e-01
8.09175436e-01
8.08564909e-01
8.08004920e-01
8.07490961e-01
8.07018925e-01
8.06585067e-01
8.06185977e-01
8.05818543e-01
8.05479926e-01
8.05167533e-01
8.04878995e-01
8.04612143e-01
8.04364985e-01
8.04135698e-01
8.03922600e-01
8.03724146e-01
8.03538905e-01
8.03365553e-01
8.03202860e-01
8.03049678e-01
8.02904934e-01
8.02767612e-01
8.02636802e-01
8.02511503e-01
8.02391741e-01
8.02274210e-01
8.02171713e-01
8.02067850e-01
8.02007296e-01
8.10892020e-01
8.10895714e-01
8.10908338e-01
8.10930566e-01
8.10962089e-01
8.11002938e-01
8.11053434e-01
8.11113996e-01
8.11185091e-01
8.11267259e-01
8.11361127e-01
8.11467419e-01
8.11586953e-01
8.11720657e-01
8.11869570e-01
8.12034855e-01
8.12217809e-01
8.12419876e-01
8.12642660e-01
8.12887937e-01
8.13157678e-01
8.13454064e-01
8.13779507e-01
8.14136674e-01
8.14528515e-01
8.14958285e-01
8.15429581e-01
8.15946370e-01
8.16513025e-01
8.17134355e-01
8.17815637e-01
8.18562642e-01
8.19381644e-01
8.20279410e-01
8.21263147e-01
8.22340378e-01
8.23518712e-01
8.24805418e-01
8.26206700e-01
8.27726443e-01
8.29364180e-01
8.31111640e-01
8.32947429e-01
8.34828856e-01
8.36680021e-01
8.38375926e-01
8.39724107e-01
8.40440135e-01
8.40224275e-01
8.38678324e-01
8.35032693e-01
8.28693557e-01
8.20450101e-01
8.11460661e-01
8.02036815e-01
7.92271987e-01
7.82278171e-01
7.72177526e-01
7.62046955e-01
7.51922254e-01
7.41823057e-01
7.31764814e-01
7.21758821e-01
7.11812559e-01
7.01930516e-01
6.92114948e-01
6.82367733e-01
6.72690767e-01
6.63086159e-01
6.53556338e-01
6.44103661e-01
6.34731288e-01
6.25443881e-01
6.16246086e-01
6.07141934e-01
5.98138586e-01
5.89249769e-01
5.80494632e-01
5.71894418e-01
5.63463194e-01
5.55227062e-01
5.47222678e-01
5.39323143e-01
5.31263445e-01
5.24866513e-01
5.62572128e-01
6.50147845e-01
7.10967477e-01
7.28385947e-01
7.36019069e-01
7.43559769e-01
7.51938988e-01
7.60557812e-01
7.69253890e-01
7.78064201e-01
7.86936463e-01
7.95715721e-01
8.04185185e-01
8.12171340e-01
8.19342126e-01
8.25038775e-01
8.28696932e-01
8.30539727e-01
8.31134139e-01
8.30785782e-01
8.29791048e-01
8.28403088e-01
8.26814592e-01
8.25155145e-01
8.23504388e-01
8.21908534e-01
8.20392772e-01
8.18969326e-01
8.17642535e-01
8.16412055e-01
8.15274827e-01
8.14226273e-01
8.13261013e-01
8.12373346e-01
8.11557539e-01
8.10808019e-01
8.10119480e-01
8.09486934e-01
8.08905718e-01
8.08371500e-01
8.07880280e-01
8.07428373e-01
8.07012394e-01
8.06629235e-01
8.06276042e-01
8.05950192e-01
8.05649281e-01
8.05371096e-01
8.05113606e-01
8.04874940e-01
8.04653375e-01
8.04447322e-01
8.04255313e-01
8.04075987e-01
8.03908082e-01
8.03750421e-01
8.03601904e-01
8.03461501e-01
8.03328235e-01
8.03201228e-01
8.03079518e-01
8.02963142e-01
8.02848919e-01
8.02749261e-01
8.02648383e-01
8.02589643e-01
8.10853445e-01
8.10857008e-01
8.10869185e-01
8.10890628e-01
8.10921043e-01
8.10960454e-01
8.11009170e-01
8.11067588e-01
8.11136155e-01
8.11215382e-01
8.11305867e-01
8.11408294e-01
8.11523440e-01
8.11652181e-01
8.11795500e-01
8.11954493e-01
8.12130379e-01
8.12324511e-01
8.12538389e-01
8.12773668e-01
8.13032177e-01
8.13315930e-01
8.13627146e-01
8.13968261e-01
8.14341953e-01
8.14751155e-01
8.15199078e-01
8.15689226e-01
8.16225412e-01
8.16811769e-01
8.17452747e-01
8.18153102e-01
8.18917855e-01
8.19752219e-01
8.20661455e-01
8.21650648e-01
8.22724336e-01
8.23885896e-01
8.25136632e-01
8.26474257e-01
8.27890676e-01
8.29368546e-01
8.30876223e-01
8.32360823e-01
8.33739254e-01
8.34888378e-01
8.35636989e-01
8.35753077e-01
8.34994470e-01
8.33095023e-01
8.29441825e-01
8.23548616e-01
8.16072501e-01
8.07895120e-01
7.99251152e-01
7.90241583e-01
7.80970914e-01
7.71543514e-01
7.62031169e-01
7.52475512e-01
7.42903959e-01
7.33337681e-01
7.23792370e-01
7.14279423e-01
7.04806738e-01
6.95379602e-01
6.86002658e-01
6.76680173e-01
6.67416280e-01
6.58215184e-01
6.49081072e-01
6.40018847e-01
6.31034713e-01
6.22135301e-01
6.13327263e-01
6.04620101e-01
5.96029447e-01
5.87577204e-01
5.79290085e-01
5.71190454e-01
5.63305188e-01
5.55666240e-01
5.48193249e-01
5.41141044e-01
5.38744283e-01
5.78924397e-01
6.57585831e-01
7.09251573e-01
7.26178372e-01
7.34867806e-01
7.43147146e-01
7.51715988e-01
7.60199360e-01
7.68580207e-01
7.76942498e-01
7.85263977e-01
7.93428034e-01
8.01260204e-01
8.08603448e-01
8.15230677e-01
8.20594452e-01
8.24197143e-01
8.26268427e-01
8.27270357e-01
8.27422564e-01
8.26949959e-01
8.26053495e-01
8.24897695e-01
8.23605234e-01
8.22260580e-01
8.20918683e-01
8.19613680e-01
8.18365636e-01
8.17185486e-01
8.16078235e-01
8.15045110e-01
8.14084966e-01
8.13195181e-01
8.12372275e-01
8.11612318e-01
8.10911194e-01