# vtk DataFile Version 3.1
Results produced by Sim2024
ASCII
DATASET STRUCTURED_GRID
DIMENSIONS 151 51 1
POINTS 7701 DOUBLE
0.00000000e+00 0.00000000e+00 0.0
2.00000000e-02 0.00000000e+00 0.0
4.00000000e-02 0.00000000e+00 0.0
6.00000000e-02 0.00000000e+00 0.0
8.00000000e-02 0.00000000e+00 0.0
1.00000000e-01 0.00000000e+00 0.0
1.20000000e-01 0.00000000e+00 0.0
1.40000000e-01 0.00000000e+00 0.0
1.60000000e-01 0.00000000e+00 0.0
1.80000000e-01 0.00000000e+00 0.0
2.00000000e-01 0.00000000e+00 0.0
2.20000000e-01 0.00000000e+00 0.0
2.40000000e-01 0.00000000e+00 0.0
2.60000000e-01 0.00000000e+00 0.0
2.80000000e-01 0.00000000e+00 0.0
3.00000000e-01 0.00000000e+00 0.0
3.20000000e-01 0.00000000e+00 0.0
3.40000000e-01 0.00000000e+00 0.0
3.60000000e-01 0.00000000e+00 0.0
3.80000000e-01 0.00000000e+00 0.0
4.00000000e-01 0.00000000e+00 0.0
4.20000000e-01 0.00000000e+00 0.0
4.40000000e-01 0.00000000e+00 0.0
4.60000000e-01 0.00000000e+00 0.0
4.80000000e-01 0.00000000e+00 0.0
5.00000000e-01 0.00000000e+00 0.0
5.20000000e-01 0.00000000e+00 0.0
5.40000000e-01 0.00000000e+00 0.0
5.60000000e-01 0.00000000e+00 0.0
5.80000000e-01 0.00000000e+00 0.0
6.00000000e-01 0.00000000e+00 0.0
6.20000000e-01 0.00000000e+00 0.0
6.40000000e-01 0.00000000e+00 0.0
6.60000000e-01 0.00000000e+00 0.0
6.80000000e-01 0.00000000e+00 0.0
7.00000000e-01 0.00000000e+00 0.0
7.20000000e-01 0.00000000e+00 0.0
7.40000000e-01 0.00000000e+00 0.0
7.60000000e-01 0.00000000e+00 0.0
7.80000000e-01 0.00000000e+00 0.0
8.00000000e-01 0.00000000e+00 0.0
8.20000000e-01 0.00000000e+00 0.0
8.40000000e-01 0.00000000e+00 0.0
8.60000000e-01 0.00000000e+00 0.0
8.80000000e-01 0.00000000e+00 0.0
9.00000000e-01 0.00000000e+00 0.0
9.20000000e-01 0.00000000e+00 0.0
9.40000000e-01 0.00000000e+00 0.0
9.60000000e-01 0.00000000e+00 0.0
9.80000000e-01 0.00000000e+00 0.0
1.00000000e+00 0.00000000e+00 0.0
1.02000000e+00 8.13906484e-03 0.0
1.04000000e+00 1.58947323e-02 0.0
1.06000000e+00 2.32742947e-02 0.0
1.08000000e+00 3.02845199e-02 0.0
1.10000000e+00 3.69316877e-02 0.0
1.12000000e+00 4.32216214e-02 0.0
1.14000000e+00 4.91597176e-02 0.0
1.16000000e+00 5.47509713e-02 0.0
1.18000000e+00 6.00000000e-02 0.0
1.20000000e+00 6.49110641e-02 0.0
1.22000000e+00 6.94880858e-02 0.0
1.24000000e+00 7.37346662e-02 0.0
1.26000000e+00 7.76541003e-02 0.0
1.28000000e+00 8.12493902e-02 0.0
1.30000000e+00 8.45232579e-02 0.0
1.32000000e+00 8.74781552e-02 0.0
1.34000000e+00 9.01162738e-02 0.0
1.36000000e+00 9.24395537e-02 0.0
1.38000000e+00 9.44496900e-02 0.0
1.40000000e+00 9.61481397e-02 0.0
1.42000000e+00 9.75361267e-02 0.0
1.44000000e+00 9.86146465e-02 0.0
1.46000000e+00 9.93844697e-02 0.0
1.48000000e+00 9.98461447e-02 0.0
1.50000000e+00 1.00000000e-01 0.0
1.52000000e+00 9.98461447e-02 0.0
1.54000000e+00 9.93844697e-02 0.0
1.56000000e+00 9.86146465e-02 0.0
1.58000000e+00 9.75361267e-02 0.0
1.60000000e+00 9.61481397e-02 0.0
1.62000000e+00 9.44496900e-02 0.0
1.64000000e+00 9.24395537e-02 0.0
1.66000000e+00 9.01162738e-02 0.0
1.68000000e+00 8.74781552e-02 0.0
1.70000000e+00 8.45232579e-02 0.0
1.72000000e+00 8.12493902e-02 0.0
1.74000000e+00 7.76541003e-02 0.0
1.76000000e+00 7.37346662e-02 0.0
1.78000000e+00 6.94880858e-02 0.0
1.80000000e+00 6.49110641e-02 0.0
1.82000000e+00 6.00000000e-02 0.0
1.84000000e+00 5.47509713e-02 0.0
1.86000000e+00 4.91597176e-02 0.0
1.88000000e+00 4.32216214e-02 0.0
1.90000000e+00 3.69316877e-02 0.0
1.92000000e+00 3.02845199e-02 0.0
1.94000000e+00 2.32742947e-02 0.0
1.96000000e+00 1.58947323e-02 0.0
1.98000000e+00 8.13906484e-03 0.0
2.00000000e+00 0.00000000e+00 0.0
2.02000000e+00 0.00000000e+00 0.0
2.04000000e+00 0.00000000e+00 0.0
2.06000000e+00 0.00000000e+00 0.0
2.08000000e+00 0.00000000e+00 0.0
2.10000000e+00 0.00000000e+00 0.0
2.12000000e+00 0.00000000e+00 0.0
2.14000000e+00 0.00000000e+00 0.0
2.16000000e+00 0.00000000e+00 0.0
2.18000000e+00 0.00000000e+00 0.0
2.20000000e+00 0.00000000e+00 0.0
2.22000000e+00 0.00000000e+00 0.0
2.24000000e+00 0.00000000e+00 0.0
2.26000000e+00 0.00000000e+00 0.0
2.28000000e+00 0.00000000e+00 0.0
2.30000000e+00 0.00000000e+00 0.0
2.32000000e+00 0.00000000e+00 0.0
2.34000000e+00 0.00000000e+00 0.0
2.36000000e+00 0.00000000e+00 0.0
2.38000000e+00 0.00000000e+00 0.0
2.40000000e+00 0.00000000e+00 0.0
2.42000000e+00 0.00000000e+00 0.0
2.44000000e+00 0.00000000e+00 0.0
2.46000000e+00 0.00000000e+00 0.0
2.48000000e+00 0.00000000e+00 0.0
2.50000000e+00 0.00000000e+00 0.0
2.52000000e+00 0.00000000e+00 0.0
2.54000000e+00 0.00000000e+00 0.0
2.56000000e+00 0.00000000e+00 0.0
2.58000000e+00 0.00000000e+00 0.0
2.60000000e+00 0.00000000e+00 0.0
2.62000000e+00 0.00000000e+00 0.0
2.64000000e+00 0.00000000e+00 0.0
2.66000000e+00 0.00000000e+00 0.0
2.68000000e+00 0.00000000e+00 0.0
2.70000000e+00 0.00000000e+00 0.0
2.72000000e+00 0.00000000e+00 0.0
2.74000000e+00 0.00000000e+00 0.0
2.76000000e+00 0.00000000e+00 0.0
2.78000000e+00 0.00000000e+00 0.0
2.80000000e+00 0.00000000e+00 0.0
2.82000000e+00 0.00000000e+00 0.0
2.84000000e+00 0.00000000e+00 0.0
2.86000000e+00 0.00000000e+00 0.0
2.88000000e+00 0.00000000e+00 0.0
2.90000000e+00 0.00000000e+00 0.0
2.92000000e+00 0.00000000e+00 0.0
2.94000000e+00 0.00000000e+00 0.0
2.96000000e+00 0.00000000e+00 0.0
2.98000000e+00 0.00000000e+00 0.0
3.00000000e+00 0.00000000e+00 0.0
0.00000000e+00 2.00000000e-02 0.0
2.00000000e-02 2.00000000e-02 0.0
4.00000000e-02 2.00000000e-02 0.0
6.00000000e-02 2.00000000e-02 0.0
8.00000000e-02 2.00000000e-02 0.0
1.00000000e-01 2.00000000e-02 0.0
1.20000000e-01 2.00000000e-02 0.0
1.40000000e-01 2.00000000e-02 0.0
1.60000000e-01 2.00000000e-02 0.0
1.80000000e-01 2.00000000e-02 0.0
2.00000000e-01 2.00000000e-02 0.0
2.20000000e-01 2.00000000e-02 0.0
2.40000000e-01 2.00000000e-02 0.0
2.60000000e-01 2.00000000e-02 0.0
2.80000000e-01 2.00000000e-02 0.0
3.00000000e-01 2.00000000e-02 0.0
3.20000000e-01 2.00000000e-02 0.0
3.40000000e-01 2.00000000e-02 0.0
3.60000000e-01 2.00000000e-02 0.0
3.80000000e-01 2.00000000e-02 0.0
4.00000000e-01 2.00000000e-02 0.0
4.20000000e-01 2.00000000e-02 0.0
4.40000000e-01 2.00000000e-02 0.0
4.60000000e-01 2.00000000e-02 0.0
4.80000000e-01 2.00000000e-02 0.0
5.00000000e-01 2.00000000e-02 0.0
5.20000000e-01 2.00000000e-02 0.0
5.40000000e-01 2.00000000e-02 0.0
5.60000000e-01 2.00000000e-02 0.0
5.80000000e-01 2.00000000e-02 0.0
6.00000000e-01 2.00000000e-02 0.0
6.20000000e-01 2.00000000e-02 0.0
6.40000000e-01 2.00000000e-02 0.0
6.60000000e-01 2.00000000e-02 0.0
6.80000000e-01 2.00000000e-02 0.0
7.00000000e-01 2.00000000e-02 0.0
7.20000000e-01 2.00000000e-02 0.0
7.40000000e-01 2.00000000e-02 0.0
7.60000000e-01 2.00000000e-02 0.0
7.80000000e-01 2.00000000e-02 0.0
8.00000000e-01 2.00000000e-02 0.0
8.20000000e-01 2.00000000e-02 0.0
8.40000000e-01 2.00000000e-02 0.0
8.60000000e-01 2.00000000e-02 0.0
8.80000000e-01 2.00000000e-02 0.0
9.00000000e-01 2.00000000e-02 0.0
9.20000000e-01 2.00000000e-02 0.0
9.40000000e-01 2.00000000e-02 0.0
9.60000000e-01 2.00000000e-02 0.0
9.80000000e-01 2.00000000e-02 0.0
1.00000000e+00 2.00000000e-02 0.0
1.02000000e+00 2.79762835e-02 0.0
1.04000000e+00 3.55768376e-02 0.0
1.06000000e+00 4.28088088e-02 0.0
1.08000000e+00 4.96788295e-02 0.0
1.10000000e+00 5.61930539e-02 0.0
1.12000000e+00 6.23571890e-02 0.0
1.14000000e+00 6.81765232e-02 0.0
1.16000000e+00 7.36559519e-02 0.0
1.18000000e+00 7.88000000e-02 0.0
1.20000000e+00 8.36128428e-02 0.0
1.22000000e+00 8.80983241e-02 0.0
1.24000000e+00 9.22599729e-02 0.0
1.26000000e+00 9.61010183e-02 0.0
1.28000000e+00 9.96244024e-02 0.0
1.30000000e+00 1.02832793e-01 0.0
1.32000000e+00 1.05728592e-01 0.0
1.34000000e+00 1.08313948e-01 0.0
1.36000000e+00 1.10590763e-01 0.0
1.38000000e+00 1.12560696e-01 0.0
1.40000000e+00 1.14225177e-01 0.0
1.42000000e+00 1.15585404e-01 0.0
1.44000000e+00 1.16642354e-01 0.0
1.46000000e+00 1.17396780e-01 0.0
1.48000000e+00 1.17849222e-01 0.0
1.50000000e+00 1.18000000e-01 0.0
1.52000000e+00 1.17849222e-01 0.0
1.54000000e+00 1.17396780e-01 0.0
1.56000000e+00 1.16642354e-01 0.0
1.58000000e+00 1.15585404e-01 0.0
1.60000000e+00 1.14225177e-01 0.0
1.62000000e+00 1.12560696e-01 0.0
1.64000000e+00 1.10590763e-01 0.0
1.66000000e+00 1.08313948e-01 0.0
1.68000000e+00 1.05728592e-01 0.0
1.70000000e+00 1.02832793e-01 0.0
1.72000000e+00 9.96244024e-02 0.0
1.74000000e+00 9.61010183e-02 0.0
1.76000000e+00 9.22599729e-02 0.0
1.78000000e+00 8.80983241e-02 0.0
1.80000000e+00 8.36128428e-02 0.0
1.82000000e+00 7.88000000e-02 0.0
1.84000000e+00 7.36559519e-02 0.0
1.86000000e+00 6.81765232e-02 0.0
1.88000000e+00 6.23571890e-02 0.0
1.90000000e+00 5.61930539e-02 0.0
1.92000000e+00 4.96788295e-02 0.0
1.94000000e+00 4.28088088e-02 0.0
1.96000000e+00 3.55768376e-02 0.0
1.98000000e+00 2.79762835e-02 0.0
2.00000000e+00 2.00000000e-02 0.0
2.02000000e+00 2.00000000e-02 0.0
2.04000000e+00 2.00000000e-02 0.0
2.06000000e+00 2.00000000e-02 0.0
2.08000000e+00 2.00000000e-02 0.0
2.10000000e+00 2.00000000e-02 0.0
2.12000000e+00 2.00000000e-02 0.0
2.14000000e+00 2.00000000e-02 0.0
2.16000000e+00 2.00000000e-02 0.0
2.18000000e+00 2.00000000e-02 0.0
2.20000000e+00 2.00000000e-02 0.0
2.22000000e+00 2.00000000e-02 0.0
2.24000000e+00 2.00000000e-02 0.0
2.26000000e+00 2.00000000e-02 0.0
2.28000000e+00 2.00000000e-02 0.0
2.30000000e+00 2.00000000e-02 0.0
2.32000000e+00 2.00000000e-02 0.0
2.34000000e+00 2.00000000e-02 0.0
2.36000000e+00 2.00000000e-02 0.0
2.38000000e+00 2.00000000e-02 0.0
2.40000000e+00 2.00000000e-02 0.0
2.42000000e+00 2.00000000e-02 0.0
2.44000000e+00 2.00000000e-02 0.0
2.46000000e+00 2.00000000e-02 0.0
2.48000000e+00 2.00000000e-02 0.0
2.50000000e+00 2.00000000e-02 0.0
2.52000000e+00 2.00000000e-02 0.0
2.54000000e+00 2.00000000e-02 0.0
2.56000000e+00 2.00000000e-02 0.0
2.58000000e+00 2.00000000e-02 0.0
2.60000000e+00 2.00000000e-02 0.0
2.62000000e+00 2.00000000e-02 0.0
2.64000000e+00 2.00000000e-02 0.0
2.66000000e+00 2.00000000e-02 0.0
2.68000000e+00 2.00000000e-02 0.0
2.70000000e+00 2.00000000e-02 0.0
2.72000000e+00 2.00000000e-02 0.0
2.74000000e+00 2.00000000e-02 0.0
2.76000000e+00 2.00000000e-02 0.0
[...]
POINT_DATA 7701
SCALARS rho DOUBLE
LOOKUP_TABLE default
8.10495229e-01
8.10500220e-01
8.10515291e-01
8.10540496e-01
8.10575955e-01
8.10622007e-01
8.10679037e-01
8.10747491e-01
8.10827913e-01
8.10920942e-01
8.11027327e-01
8.11147926e-01
8.11283718e-01
8.11435816e-01
8.11605475e-01
8.11794106e-01
8.12003301e-01
8.12234835e-01
8.12490710e-01
8.12773152e-01
8.13084680e-01
8.13428083e-01
8.13806544e-01
8.14223562e-01
8.14683199e-01
8.15189852e-01
8.15748784e-01
8.16365530e-01
8.17047062e-01
8.17800324e-01
8.18634874e-01
8.19559296e-01
8.20587330e-01
8.21729186e-01
8.23005918e-01
8.24428472e-01
8.26031791e-01
8.27824126e-01
8.29868916e-01
8.32161374e-01
8.34826708e-01
8.37819871e-01
8.41409555e-01
8.45436186e-01
8.50526949e-01
8.56197840e-01
8.64064463e-01
8.72562584e-01
8.86817956e-01
9.00789391e-01
9.20507497e-01
9.05274325e-01
8.61110840e-01
8.38439073e-01
8.18127744e-01
7.99920422e-01
7.82901773e-01
7.66788262e-01
7.51385732e-01
7.36545379e-01
7.22164315e-01
7.08172232e-01
6.94513420e-01
6.81146200e-01
6.68038148e-01
6.55163320e-01
6.42499929e-01
6.30028488e-01
6.17734514e-01
6.05608443e-01
5.93643197e-01
5.81832143e-01
5.70169447e-01
5.58647767e-01
5.47257446e-01
5.35982439e-01
5.24824946e-01
5.13844387e-01
5.03227696e-01
4.93128794e-01
4.83222246e-01
4.71884952e-01
4.56986443e-01
4.41648058e-01
4.42308194e-01
5.01265513e-01
6.17725553e-01
7.03456966e-01
7.24048304e-01
7.23315760e-01
7.26617409e-01
7.36103841e-01
7.48196381e-01
7.60841573e-01
7.74773705e-01
7.89095082e-01
8.05615511e-01
8.21506992e-01
8.42577465e-01
8.60994324e-01
8.83653555e-01
8.81280571e-01
8.56437100e-01
8.47726639e-01
8.39250564e-01
8.33413132e-01
8.28410857e-01
8.24250157e-01
8.20675844e-01
8.17579070e-01
8.14871748e-01
8.12488392e-01
8.10377681e-01
8.08499428e-01
8.06821499e-01
8.05317504e-01
8.03965551e-01
8.02747322e-01
8.01647230e-01
8.00651884e-01
7.99749732e-01
7.98930751e-01
7.98186194e-01
7.97508387e-01
7.96890562e-01
7.96326738e-01
7.95811591e-01
7.95340382e-01
7.94908857e-01
7.94513217e-01
7.94150018e-01
7.93816192e-01
7.93508903e-01
7.93225669e-01
7.92964097e-01
7.92722208e-01
7.92497889e-01
7.92289654e-01
7.92095462e-01
7.91914439e-01
7.91744260e-01
7.91585039e-01
7.91433477e-01
7.91291583e-01
7.91153627e-01
7.91025598e-01
7.90896416e-01
7.90780036e-01
7.90658671e-01
7.90547628e-01
7.90514379e-01
8.10492603e-01
8.10497587e-01
8.10512646e-01
8.10537823e-01
8.10573217e-01
8.10619175e-01
8.10676085e-01
8.10744394e-01
8.10824643e-01
8.10917472e-01
8.11023626e-01
8.11143961e-01
8.11279453e-01
8.11431210e-01
8.11600484e-01
8.11788682e-01
8.11997388e-01
8.12228371e-01
8.12483626e-01
8.12765370e-01
8.13076108e-01
8.13418620e-01
8.13796071e-01
8.14211942e-01
8.14670272e-01
8.15175434e-01
8.15732652e-01
8.16347429e-01
8.17026673e-01
8.17777291e-01
8.18608717e-01
8.19529506e-01
8.20553149e-01
8.21689879e-01
8.22960198e-01
8.24375280e-01
8.25968746e-01
8.27749740e-01
8.29778310e-01
8.32052644e-01
8.34688710e-01
8.37650866e-01
8.41179947e-01
8.45146934e-01
8.50084938e-01
8.55613033e-01
8.62975172e-01
8.70997415e-01
8.82788654e-01
8.93340747e-01
9.03083747e-01
8.87861714e-01
8.55342500e-01
8.36075368e-01
8.17241431e-01
8.00079457e-01
7.83951450e-01
7.68586399e-01
7.53830452e-01
7.39570151e-01
7.25718092e-01
7.12213196e-01
6.99010476e-01
6.86072643e-01
6.73370054e-01
6.60878125e-01
6.48575869e-01
6.36445046e-01
6.24476479e-01
6.12665932e-01
6.01007835e-01
5.89496425e-01
5.78126745e-01
5.66892122e-01
5.55783320e-01
5.44785368e-01
5.33899983e-01
5.23187450e-01
5.12830712e-01
5.02971757e-01
4.93278379e-01
4.82205857e-01
4.67580922e-01
4.52135662e-01
4.51082188e-01
5.04701346e-01
6.16075206e-01
7.03063264e-01
7.28099651e-01
7.29529701e-01
7.32422829e-01
7.40802093e-01
7.52106325e-01
7.64209585e-01
7.77419315e-01
7.91035600e-01
8.06355786e-01
8.21370681e-01
8.39604750e-01
8.55064020e-01
8.71417637e-01
8.71845833e-01
8.56519600e-01
8.48873995e-01
8.41088627e-01
8.35464037e-01
8.30619370e-01
8.26542157e-01
8.23024721e-01
8.19966225e-01
8.17285444e-01
8.14920993e-01
8.12824365e-01
8.10956927e-01
8.09287444e-01
8.07790199e-01
8.06443728e-01
8.05229913e-01
8.04133346e-01
8.03140826e-01
8.02240951e-01
8.01423810e-01
8.00680742e-01
8.00004143e-01
7.99387299e-01
7.98824267e-01
7.98309755e-01
7.97839051e-01
7.97407924e-01
7.97012596e-01
7.96649637e-01
7.96315994e-01
7.96008841e-01
7.95725703e-01
7.95464198e-01
7.95222350e-01
7.94998055e-01
7.94789827e-01
7.94595634e-01
7.94414597e-01
7.94244412e-01
7.94085170e-01
7.93933612e-01
7.93791700e-01
7.93653797e-01
7.93525761e-01
7.93396801e-01
7.93280417e-01
7.93160087e-01
7.93049016e-01
7.93014363e-01
8.10485196e-01
8.10490140e-01
8.10505107e-01
8.10530148e-01
8.10565334e-01
8.10611015e-01
8.10667579e-01
8.10735471e-01
8.10815228e-01
8.10907484e-01
8.11012977e-01
8.11132556e-01
8.11267188e-01
8.11417971e-01
8.11586144e-01
8.11773102e-01
8.11980410e-01
8.12209821e-01
8.12463305e-01
8.12743054e-01
8.13051542e-01
8.13391514e-01
8.13766087e-01
8.14178699e-01
8.14633315e-01
8.15134249e-01
8.15686612e-01
8.16295828e-01
8.16968619e-01
8.17711795e-01
8.18534457e-01
8.19445080e-01
8.20456498e-01
8.21578983e-01
8.22831639e-01
8.24226142e-01
8.25792892e-01
8.27543018e-01
8.29528640e-01
8.31754351e-01
8.34315843e-01
8.37196019e-01
8.40580139e-01
8.44392319e-01
8.49001421e-01
8.54172688e-01
8.60603506e-01
8.67583037e-01
8.75808491e-01
8.82136380e-01
8.82783216e-01
8.70042793e-01
8.49967502e-01
8.33258129e-01
8.16038106e-01
8.00094470e-01
7.85010883e-01
7.70508754e-01
7.56486525e-01
7.42875763e-01
7.29613512e-01
7.16651486e-01
7.03954994e-01
6.91493141e-01
6.79241643e-01
6.67180959e-01
6.55295976e-01
6.43571981e-01
6.31998521e-01
6.20569990e-01
6.09280364e-01
5.98124044e-01
5.87096954e-01
5.76193748e-01
5.65406810e-01
5.54725567e-01
5.44155481e-01
5.33759765e-01
5.23714284e-01
5.14121217e-01
5.04609405e-01
4.93739121e-01
4.79565987e-01
4.64588398e-01
4.62177040e-01
5.09434222e-01
6.13565752e-01
7.00827621e-01
7.30964806e-01
7.35281994e-01
7.38027613e-01
7.45318106e-01
7.55773287e-01
7.67260869e-01
7.79645472e-01
7.92459018e-01
8.06393448e-01
8.20363197e-01
8.35312716e-01
8.48395781e-01
8.58657181e-01
8.61237077e-01
8.55474103e-01
8.49361274e-01
8.42955746e-01
8.37777622e-01
8.33270153e-01
8.29394229e-01
8.26018079e-01
8.23059273e-01
8.20451729e-01
8.18142246e-01
8.16087532e-01
8.14252677e-01
8.12608931e-01
8.11132214e-01
8.09802329e-01
8.08602154e-01
8.07516926e-01
8.06533910e-01
8.05642063e-01
8.04831758e-01
8.04094549e-01
8.03422999e-01
8.02810532e-01
8.02251318e-01
8.01740154e-01
8.01272400e-01
8.00843885e-01
8.00450876e-01
8.00089986e-01
7.99758192e-01
7.99452699e-01
7.99171055e-01
7.98910900e-01
7.98670271e-01
7.98447086e-01
7.98239860e-01
7.98046592e-01
7.97866382e-01
7.97696975e-01
7.97538409e-01
7.97387515e-01
7.97246129e-01
7.97108795e-01
7.96981097e-01
7.96852587e-01
7.96736260e-01
7.96616077e-01
7.96505709e-01
7.96471116e-01
8.10472425e-01
8.10477305e-01
8.10492100e-01
8.10516878e-01
8.10551700e-01
8.10596904e-01
8.10652873e-01
8.10720047e-01
8.10798954e-01
8.10890220e-01
8.10994571e-01
8.11112844e-01
8.11245990e-01
8.11395091e-01
8.11561363e-01
8.11746178e-01
8.11951073e-01
8.12177767e-01
8.12428192e-01
8.12704496e-01
8.13009099e-01
8.13344682e-01
8.13714289e-01
8.14121270e-01
8.14569477e-01
8.15063108e-01
8.15607095e-01
8.16206707e-01
8.16868369e-01
8.17598695e-01
8.18406262e-01
8.19299320e-01
8.20289718e-01
8.21387562e-01
8.22609962e-01
8.23968771e-01
8.25490072e-01
8.27186352e-01
8.29099813e-01
8.31239833e-01
8.33678538e-01
8.36411862e-01
8.39566663e-01
8.43098205e-01
8.47223141e-01
8.51769889e-01
8.57035970e-01
8.62407420e-01
8.67725254e-01
8.70962790e-01
8.69594202e-01
8.58921612e-01
8.42598078e-01
8.27787344e-01
8.12881014e-01
7.98517180e-01
7.84595648e-01
7.71045752e-01
7.57840213e-01
7.44948417e-01
7.32337387e-01
7.19970765e-01
7.07820262e-01
6.95866809e-01
6.84092342e-01
6.72480805e-01
6.61018665e-01
6.49694367e-01
6.38500604e-01
6.27434167e-01
6.16493227e-01
6.05675983e-01
5.94979705e-01
5.84399911e-01
5.73930476e-01
5.63565439e-01
5.53315714e-01
5.43237857e-01
5.33478142e-01
5.24088369e-01
5.14652003e-01
5.03780723e-01
4.89830634e-01
4.75479229e-01
4.74017226e-01
5.18970074e-01
6.15864364e-01
6.99537606e-01
7.31849713e-01
7.38239320e-01
7.41613755e-01
7.48513151e-01
7.58210449e-01
7.68945271e-01
7.80441459e-01
7.92310496e-01
8.04890153e-01
8.17412116e-01
8.30142455e-01
8.41851422e-01
8.50675394e-01
8.53251475e-01
8.50216588e-01
8.46365819e-01
8.41782637e-01
8.37472920e-01
8.33542369e-01
8.30042065e-01
8.26929590e-01
8.24161645e-01
8.21696672e-01
8.19496372e-01
8.17526947e-01
8.15759891e-01
8.14170640e-01
8.12738000e-01
8.11444069e-01
8.10273613e-01
8.09213266e-01
8.08251271e-01
8.07377312e-01
8.06582320e-01
8.05858295e-01
8.05198161e-01
8.04595625e-01
8.04045082e-01
8.03541519e-01
8.03080453e-01
8.02657843e-01
8.02270068e-01
8.01913833e-01
8.01586192e-01
8.01284419e-01
8.01006115e-01
8.00748974e-01
8.00511067e-01
8.00290361e-01
8.00085387e-01
7.99894192e-01
7.99715875e-01
7.99548241e-01
7.99391292e-01
7.99241958e-01
7.99101977e-01
7.98966065e-01
7.98839608e-01
7.98712442e-01
7.98597263e-01
7.98478310e-01
7.98369114e-01
7.98334657e-01
8.10454206e-01
8.10459008e-01
8.10473577e-01
8.10497983e-01
8.10532284e-01
8.10576806e-01
8.10631927e-01
8.10698078e-01
8.10775776e-01
8.10865634e-01
8.10968363e-01
8.11084780e-01
8.11215816e-01
8.11362526e-01
8.11526100e-01
8.11707872e-01
8.11909343e-01
8.12132184e-01
8.12378273e-01
8.12649695e-01
8.12948795e-01
8.13278169e-01
8.13640751e-01
8.14039777e-01
8.14478936e-01
8.14962266e-01
8.15494455e-01
8.16080550e-01
8.16726588e-01
8.17438876e-01
8.18225338e-01
8.19093827e-01
8.20055008e-01
8.21118532e-01
8.22299230e-01
8.23608585e-01
8.25068031e-01
8.26690222e-01
8.28507359e-01
8.30530682e-01
8.32809853e-01
8.35346757e-01
8.38215913e-01
8.41386926e-01
8.44949978e-01
8.48768296e-01
8.52837071e-01
8.56636263e-01
8.59619956e-01
8.60448894e-01
8.57034747e-01
8.47820248e-01
8.35553868e-01
8.23178263e-01
8.10098645e-01
7.96985693e-01
7.84078501e-01
7.71416221e-01
7.58991169e-01
7.46790158e-01
7.34798503e-01
7.22996446e-01
7.11367908e-01
6.99902127e-01
6.88587162e-01
6.77411831e-01
6.66367013e-01
6.55448473e-01
6.44651416e-01
6.33968419e-01
6.23396869e-01
6.12936558e-01
6.02585927e-01
5.92341812e-01
5.82200772e-01
5.72162298e-01
5.62243917e-01
5.52498166e-01
5.43027355e-01
5.33828205e-01
5.24450538e-01
5.13604961e-01
5.00009386e-01
4.86701724e-01
4.86865368e-01
5.29804134e-01
6.18895892e-01
6.97945085e-01
7.31739897e-01
7.40108015e-01
7.44286961e-01
7.50989078e-01
7.60062540e-01
7.70137796e-01
7.80807689e-01
7.91785767e-01
8.03103019e-01
8.14292230e-01
8.25164563e-01
8.34912411e-01
8.42122427e-01
8.45429615e-01
8.45092819e-01
8.42984850e-01
8.39786821e-01
8.36385704e-01
8.33080686e-01
8.30010382e-01
8.27207887e-01
8.24669301e-01
8.22377108e-01
8.20309527e-01
8.18444282e-01
8.16760379e-01
8.15238394e-01
8.13860973e-01
8.12612961e-01
8.11480922e-01
8.10452913e-01
8.09518340e-01
8.08667808e-01
8.07892967e-01
8.07186377e-01
8.06541406e-01
8.05952130e-01
8.05413242e-01
8.04919968e-01
8.04468019e-01
8.04053520e-01
8.03672985e-01
8.03323234e-01
8.03001418e-01
8.02704895e-01
8.02431335e-01
8.02178498e-01
8.01944501e-01
8.01727364e-01
8.01525649e-01
8.01337453e-01
8.01161880e-01
8.00996801e-01
8.00842183e-01
8.00695057e-01
8.00557059e-01
8.00423084e-01
8.00298279e-01
8.00172832e-01
8.00058929e-01
7.99941542e-01
7.99833344e-01
7.99798428e-01
8.10430584e-01
8.10435288e-01
8.10449564e-01
8.10473486e-01
8.10507108e-01
8.10550748e-01
8.10604772e-01
8.10669600e-01
8.10745734e-01
8.10833770e-01
8.10934400e-01
8.11048416e-01
8.11176724e-01
8.11320344e-01
8.11480428e-01
8.11658270e-01
8.11855316e-01
8.12073181e-01
8.12313671e-01
8.12578794e-01
8.12870796e-01
8.13192164e-01
8.13545696e-01
8.13934476e-01
8.14361995e-01
8.14832080e-01
8.15349122e-01
8.15917870e-01
8.16543896e-01
8.17233092e-01
8.17992616e-01
8.18829743e-01
8.19753817e-01
8.20773696e-01
8.21901807e-01
8.23148591e-01
8.24530863e-01
8.26059998e-01
8.27758892e-01
8.29637386e-01
8.31725640e-01
8.34024211e-01
8.36566287e-01
8.39319644e-01
8.42290193e-01
8.45340956e-01
8.48329965e-01
8.50825031e-01
8.52327592e-01
8.52027598e-01
8.48547520e-01
8.40691497e-01
8.29962016e-01
8.18526059e-01
8.06644212e-01
7.94726735e-01
7.82876988e-01
7.71116431e-01
7.59473919e-01
7.47966589e-01
7.36599360e-01
7.25371447e-01
7.14275583e-01
7.03304124e-01
6.92451314e-01
6.81710884e-01
6.71076841e-01
6.60544208e-01
6.50110241e-01
6.39773556e-01
6.29535056e-01
6.19396924e-01
6.09359457e-01
5.99421717e-01
5.89583220e-01
5.79848643e-01
5.70239814e-01
5.60808103e-01
5.51614531e-01
5.42588111e-01
5.33223240e-01
5.22339750e-01
5.09188676e-01
4.97548966e-01
5.00505050e-01
5.42916976e-01
6.24823819e-01
6.97241350e-01
7.30218079e-01
7.40107433e-01
7.45359011e-01
7.52254052e-01
7.60968288e-01
7.70486534e-01
7.80438009e-01
7.90616645e-01
8.00946308e-01
8.11095773e-01
8.20796824e-01
8.29565669e-01
8.36194757e-01
8.39533476e-01
8.39957812e-01
8.38857800e-01
8.36810623e-01
8.34327632e-01
8.31712000e-01
8.29147820e-01
8.26722377e-01
8.24469710e-01
8.22398052e-01
8.20503187e-01
8.18775181e-01
8.17201735e-01
8.15769886e-01
8.14467044e-01
8.13281380e-01
8.12201824e-01
8.11218273e-01
8.10321595e-01
8.09503540e-01
8.08756680e-01
8.08074300e-01
8.07450362e-01
8.06879447e-01
8.06356670e-01
8.05877592e-01
8.05438196e-01
8.05034837e-01
8.04664219e-01
8.04323328e-01
8.04009450e-01
8.03720065e-01
8.03452939e-01
8.03205924e-01
8.02977208e-01
8.02764887e-01
8.02567565e-01
8.02383414e-01
8.02211550e-01
8.02049929e-01
8.01898493e-01
8.01754394e-01
8.01619168e-01
8.01487918e-01
8.01365559e-01
8.01242647e-01
8.01130928e-01
8.01015835e-01
8.00910026e-01
8.00875801e-01
8.10401672e-01
8.10406261e-01
8.10420185e-01
8.10443519e-01
8.10476314e-01
8.10518877e-01
8.10571562e-01
8.10634774e-01
8.10709000e-01
8.10794815e-01
8.10892885e-01
8.11003976e-01
8.11128958e-01
8.11268813e-01
8.11424650e-01
8.11597707e-01
8.11789371e-01
8.12001187e-01
8.12234876e-01
8.12492351e-01
8.12775742e-01
8.13087407e-01
8.13429981e-01
8.13806368e-01
8.14219828e-01
8.14673934e-01
8.15172735e-01
8.15720623e-01
8.16322646e-01
8.16984186e-01
8.17711570e-01
8.18511334e-01
8.19391449e-01
8.20359692e-01
8.21426109e-01
8.22599554e-01
8.23892523e-01
8.25314029e-01
8.26878834e-01
8.28593112e-01
8.30471325e-01
8.32508179e-01
8.34706601e-01
8.37024937e-01
8.39416515e-01
8.41738157e-01
8.43796313e-01
8.45231307e-01
8.45604721e-01
8.44362509e-01
8.40454280e-01
8.33207374e-01
8.23955196e-01
8.14074536e-01
8.03632557e-01
7.92852149e-01
7.81912053e-01
7.70940015e-01
7.60004727e-01
7.49138481e-01
7.38356123e-01
7.27663948e-01
7.17062912e-01
7.06553467e-01
6.96135294e-01
6.85806816e-01
6.75565886e-01
6.65412470e-01
6.55348515e-01
6.45372990e-01
6.35485078e-01
6.25686548e-01
6.15978529e-01
6.06362300e-01
5.96840416e-01
5.87422472e-01
5.78132050e-01
5.69013895e-01
5.60090851e-01
5.51237135e-01
5.41903713e-01
5.31088260e-01
5.18623645e-01
5.08854574e-01
5.14713068e-01
5.56626163e-01
6.31155449e-01
6.96525341e-01
7.28276849e-01
7.39543700e-01
7.45920094e-01
7.53087436e-01
7.61514995e-01
7.70529403e-01
7.79824487e-01
7.89244332e-01
7.98660947e-01
8.07821780e-01
8.16454712e-01
8.24219799e-01
8.30241109e-01
8.33704518e-01
8.34984096e-01
8.34897757e-01
8.33783448e-01
8.32065370e-01
8.30063745e-01
8.27980224e-01
8.25928074e-01
8.23966930e-01
8.22125249e-01
8.20413833e-01
8.18833734e-01
8.17380720e-01
8.16047897e-01
8.14827192e-01
8.13710139e-01
8.12688380e-01
8.11753938e-01
8.10899290e-01
8.10117425e-01
8.09401890e-01
8.08746766e-01
8.08146669e-01
8.07596702e-01
8.07092394e-01
8.06629660e-01
8.06204783e-01
8.05814365e-01
8.05455320e-01
8.05124811e-01
8.04820274e-01
8.04539319e-01
8.04279823e-01
8.04039736e-01
8.03817324e-01
8.03610763e-01
8.03418710e-01
8.03239410e-01
8.03072005e-01
8.02914529e-01
8.02766910e-01
8.02626412e-01
8.02494488e-01
8.02366432e-01
8.02246942e-01
8.02126949e-01
8.02017726e-01
8.01905413e-01
8.01801929e-01
8.01767993e-01
8.10367585e-01
8.10372037e-01
8.10385548e-01
8.10408190e-01
8.10440011e-01
8.10481306e-01
8.10532416e-01
8.10593730e-01
8.10665714e-01
8.10748918e-01
8.10843981e-01
8.10951636e-01
8.11072713e-01
8.11208151e-01
8.11359004e-01
8.11526451e-01
8.11711807e-01
8.11916536e-01
8.12142263e-01
8.12390790e-01
8.12664116e-01
8.12964448e-01
8.13294238e-01
8.13656181e-01
8.14053276e-01
8.14488807e-01
8.14966442e-01
8.15490159e-01
8.16064440e-01
8.16694069e-01
8.17384499e-01
8.18141389e-01
8.18971309e-01
8.19880734e-01
8.20877386e-01
8.21968133e-01
8.23161494e-01
8.24463399e-01
8.25881616e-01
8.27417470e-01
8.29073080e-01
8.30835586e-01
8.32687124e-01
8.34576771e-01
8.36431714e-01
8.38112984e-01
8.39429146e-01
8.40095541e-01
8.39779513e-01
8.38120290e-01
8.34339809e-01
8.27880953e-01
8.19579825e-01
8.10431553e-01
8.00714975e-01
7.90700310e-01
7.80544077e-01
7.70317880e-01
7.60065948e-01
7.49821534e-01
7.39607625e-01
7.29440396e-01
7.19330390e-01
7.09281861e-01
6.99297229e-01
6.89378152e-01
6.79525410e-01
6.69739638e-01
6.60022016e-01
6.50375402e-01
6.40803089e-01
6.31309169e-01
6.21898209e-01
6.12574180e-01
6.03342514e-01
5.94216501e-01
5.85219904e-01
5.76388012e-01
5.67709021e-01
5.59013520e-01
5.49748492e-01
5.39144740e-01
5.27708639e-01
5.20409755e-01
5.29349980e-01
5.70559389e-01
6.38140338e-01
6.96467477e-01
7.26139904e-01
7.38182876e-01
7.45502367e-01
7.53045151e-01
7.61374537e-01
7.70040330e-01
7.78830900e-01
7.87647981e-01
7.96379263e-01
8.04830007e-01
8.12775753e-01
8.19934089e-01
8.25579816e-01
8.29042349e-01
8.30625453e-01
8.31002063e-01
8.30498557e-01
8.29409765e-01
8.27970637e-01
8.26357054e-01
8.24687610e-01
8.23035860e-01
8.21444517e-01
8.19936668e-01
8.18523268e-01
8.17207834e-01
8.15989434e-01
8.14864577e-01
8.13828363e-01
8.12875225e-01
8.11999359e-01
8.11194983e-01
8.10456509e-01
8.09778628e-01
8.09156344e-01
8.08585010e-01
8.08060319e-01
8.07578293e-01
8.07135267e-01
8.06727877e-01
8.06353027e-01
8.06007881e-01
8.05689814e-01
8.05396445e-01
8.05125551e-01
8.04875144e-01
8.04643296e-01
8.04428372e-01
8.04228647e-01
8.04042844e-01
8.03869296e-01
8.03707182e-01
8.03554629e-01
8.03411560e-01
8.03275365e-01
8.03147417e-01
8.03023221e-01
8.02907255e-01
8.02790835e-01
8.02684761e-01
8.02575708e-01
8.02475352e-01
8.02442339e-01
8.10328489e-01
8.10332786e-01
8.10345826e-01
8.10367679e-01
8.10398387e-01
8.10438235e-01
8.10487546e-01
8.10546690e-01
8.10616112e-01
8.10696335e-01
8.10787966e-01
8.10891700e-01
8.11008324e-01
8.11138725e-01
8.11283899e-01
8.11444957e-01
8.11623135e-01
8.11819804e-01
8.12036485e-01
8.12274855e-01
8.12536768e-01
8.12824262e-01
8.13139591e-01
8.13485215e-01
8.13863856e-01
8.14278472e-01
8.14732329e-01
8.15228947e-01
8.15772218e-01
8.16366264e-01
8.17015649e-01
8.17725067e-01
8.18499707e-01
8.19344609e-01
8.20265293e-01
8.21266458e-01
8.22353036e-01
8.23527627e-01
8.24792118e-01
8.26142718e-01
8.27572073e-01
8.29060102e-01
8.30575536e-01
8.32060351e-01
8.33429754e-01
8.34551239e-01
8.35246843e-01
8.35285156e-01
8.34404714e-01
8.32345976e-01
8.28489322e-01
8.22380084e-01
8.14792299e-01
8.06568947e-01
7.97849964e-01
7.88758698e-01
7.79401045e-01
7.69869831e-01
7.60240675e-01
7.50566350e-01
7.40880049e-01
7.31203734e-01
7.21551108e-01
7.11930956e-01
7.02350725e-01
6.92815565e-01
6.83329374e-01
6.73895538e-01
6.64520775e-01
6.55211344e-01
6.45968678e-01
6.36795919e-01
6.27698507e-01
6.18682469e-01
6.09755873e-01
6.00934343e-01
5.92239944e-01
5.83695306e-01
5.75258786e-01
5.66732849e-01
5.57611188e-01
5.47398970e-01
5.37119217e-01
5.32201742e-01
5.44008321e-01
5.84345989e-01
6.44955480e-01
6.96290659e-01
7.23866555e-01
7.36618357e-01
7.44843174e-01
7.52741876e-01
7.60974885e-01
7.69315737e-01
7.77644524e-01
7.85902899e-01
7.93995045e-01
8.01766900e-01
8.09039445e-01
8.15616781e-01
8.20915870e-01
8.24367594e-01
8.26284927e-01
8.27190964e-01
8.27266093e-01
8.26724006e-01
8.25770961e-01
8.24575319e-01
8.23257856e-01
8.21899182e-01
8.20550784e-01
8.19244368e-01
8.17998491e-01
8.16822995e-01
8.15722105e-01
8.14696477e-01
8.13744536e-01
8.12863359e-01
8.12049262e-01
8.11298180e-01
8.10605914e-01