# vtk DataFile Version 3.1
Results produced by Sim2024
ASCII
DATASET STRUCTURED_GRID
DIMENSIONS 151 51 1
POINTS 7701 DOUBLE
0 0 0.0
0.02 0 0.0
0.04 0 0.0
0.06 0 0.0
0.08 0 0.0
0.1 0 0.0
0.12 0 0.0
0.14 0 0.0
0.16 0 0.0
0.18 0 0.0
0.2 0 0.0
0.22 0 0.0
0.24 0 0.0
0.26 0 0.0
0.28 0 0.0
0.3 0 0.0
0.32 0 0.0
0.34 0 0.0
0.36 0 0.0
0.38 0 0.0
0.4 0 0.0
0.42 0 0.0
0.44 0 0.0
0.46 0 0.0
0.48 0 0.0
0.5 0 0.0
0.52 0 0.0
0.54 0 0.0
0.56 0 0.0
0.58 0 0.0
0.6 0 0.0
0.62 0 0.0
0.64 0 0.0
0.66 0 0.0
0.68 0 0.0
0.7 0 0.0
0.72 0 0.0
0.74 0 0.0
0.76 0 0.0
0.78 0 0.0
0.8 0 0.0
0.82 0 0.0
0.84 0 0.0
0.86 0 0.0
0.88 0 0.0
0.9 0 0.0
0.92 0 0.0
0.94 0 0.0
0.96 0 0.0
0.98 0 0.0
1 0 0.0
1.02 0.00813906 0.0
1.04 0.0158947 0.0
1.06 0.0232743 0.0
1.08 0.0302845 0.0
1.1 0.0369317 0.0
1.12 0.0432216 0.0
1.14 0.0491597 0.0
1.16 0.054751 0.0
1.18 0.06 0.0
1.2 0.0649111 0.0
1.22 0.0694881 0.0
1.24 0.0737347 0.0
1.26 0.0776541 0.0
1.28 0.0812494 0.0
1.3 0.0845233 0.0
1.32 0.0874782 0.0
1.34 0.0901163 0.0
1.36 0.0924396 0.0
1.38 0.0944497 0.0
1.4 0.0961481 0.0
1.42 0.0975361 0.0
1.44 0.0986146 0.0
1.46 0.0993845 0.0
1.48 0.0998461 0.0
1.5 0.1 0.0
1.52 0.0998461 0.0
1.54 0.0993845 0.0
1.56 0.0986146 0.0
1.58 0.0975361 0.0
1.6 0.0961481 0.0
1.62 0.0944497 0.0
1.64 0.0924396 0.0
1.66 0.0901163 0.0
1.68 0.0874782 0.0
1.7 0.0845233 0.0
1.72 0.0812494 0.0
1.74 0.0776541 0.0
1.76 0.0737347 0.0
1.78 0.0694881 0.0
1.8 0.0649111 0.0
1.82 0.06 0.0
1.84 0.054751 0.0
1.86 0.0491597 0.0
1.88 0.0432216 0.0
1.9 0.0369317 0.0
1.92 0.0302845 0.0
1.94 0.0232743 0.0
1.96 0.0158947 0.0
1.98 0.00813906 0.0
2 0 0.0
2.02 0 0.0
2.04 0 0.0
2.06 0 0.0
2.08 0 0.0
2.1 0 0.0
2.12 0 0.0
2.14 0 0.0
2.16 0 0.0
2.18 0 0.0
2.2 0 0.0
2.22 0 0.0
2.24 0 0.0
2.26 0 0.0
2.28 0 0.0
2.3 0 0.0
2.32 0 0.0
2.34 0 0.0
2.36 0 0.0
2.38 0 0.0
2.4 0 0.0
2.42 0 0.0
2.44 0 0.0
2.46 0 0.0
2.48 0 0.0
2.5 0 0.0
2.52 0 0.0
2.54 0 0.0
2.56 0 0.0
2.58 0 0.0
2.6 0 0.0
2.62 0 0.0
2.64 0 0.0
2.66 0 0.0
2.68 0 0.0
2.7 0 0.0
2.72 0 0.0
2.74 0 0.0
2.76 0 0.0
2.78 0 0.0
2.8 0 0.0
2.82 0 0.0
2.84 0 0.0
2.86 0 0.0
2.88 0 0.0
2.9 0 0.0
2.92 0 0.0
2.94 0 0.0
2.96 0 0.0
2.98 0 0.0
3 0 0.0
0 0.02 0.0
0.02 0.02 0.0
0.04 0.02 0.0
0.06 0.02 0.0
0.08 0.02 0.0
0.1 0.02 0.0
0.12 0.02 0.0
0.14 0.02 0.0
0.16 0.02 0.0
0.18 0.02 0.0
0.2 0.02 0.0
0.22 0.02 0.0
0.24 0.02 0.0
0.26 0.02 0.0
0.28 0.02 0.0
0.3 0.02 0.0
0.32 0.02 0.0
0.34 0.02 0.0
0.36 0.02 0.0
0.38 0.02 0.0
0.4 0.02 0.0
0.42 0.02 0.0
0.44 0.02 0.0
0.46 0.02 0.0
0.48 0.02 0.0
0.5 0.02 0.0
0.52 0.02 0.0
0.54 0.02 0.0
0.56 0.02 0.0
0.58 0.02 0.0
0.6 0.02 0.0
0.62 0.02 0.0
0.64 0.02 0.0
0.66 0.02 0.0
0.68 0.02 0.0
0.7 0.02 0.0
0.72 0.02 0.0
0.74 0.02 0.0
0.76 0.02 0.0
0.78 0.02 0.0
0.8 0.02 0.0
0.82 0.02 0.0
0.84 0.02 0.0
0.86 0.02 0.0
0.88 0.02 0.0
0.9 0.02 0.0
0.92 0.02 0.0
0.94 0.02 0.0
0.96 0.02 0.0
0.98 0.02 0.0
1 0.02 0.0
1.02 0.0279763 0.0
1.04 0.0355768 0.0
1.06 0.0428088 0.0
1.08 0.0496788 0.0
1.1 0.0561931 0.0
1.12 0.0623572 0.0
1.14 0.0681765 0.0
1.16 0.073656 0.0
1.18 0.0788 0.0
1.2 0.0836128 0.0
1.22 0.0880983 0.0
1.24 0.09226 0.0
1.26 0.096101 0.0
1.28 0.0996244 0.0
1.3 0.102833 0.0
1.32 0.105729 0.0
1.34 0.108314 0.0
1.36 0.110591 0.0
1.38 0.112561 0.0
1.4 0.114225 0.0
1.42 0.115585 0.0
1.44 0.116642 0.0
1.46 0.117397 0.0
1.48 0.117849 0.0
1.5 0.118 0.0
1.52 0.117849 0.0
1.54 0.117397 0.0
1.56 0.116642 0.0
1.58 0.115585 0.0
1.6 0.114225 0.0
1.62 0.112561 0.0
1.64 0.110591 0.0
1.66 0.108314 0.0
1.68 0.105729 0.0
1.7 0.102833 0.0
1.72 0.0996244 0.0
1.74 0.096101 0.0
1.76 0.09226 0.0
1.78 0.0880983 0.0
1.8 0.0836128 0.0
1.82 0.0788 0.0
1.84 0.073656 0.0
1.86 0.0681765 0.0
1.88 0.0623572 0.0
1.9 0.0561931 0.0
1.92 0.0496788 0.0
1.94 0.0428088 0.0
1.96 0.0355768 0.0
1.98 0.0279763 0.0
2 0.02 0.0
2.02 0.02 0.0
2.04 0.02 0.0
2.06 0.02 0.0
2.08 0.02 0.0
2.1 0.02 0.0
2.12 0.02 0.0
2.14 0.02 0.0
2.16 0.02 0.0
2.18 0.02 0.0
2.2 0.02 0.0
2.22 0.02 0.0
2.24 0.02 0.0
2.26 0.02 0.0
2.28 0.02 0.0
2.3 0.02 0.0
2.32 0.02 0.0
2.34 0.02 0.0
2.36 0.02 0.0
2.38 0.02 0.0
2.4 0.02 0.0
2.42 0.02 0.0
2.44 0.02 0.0
2.46 0.02 0.0
2.48 0.02 0.0
2.5 0.02 0.0
2.52 0.02 0.0
2.54 0.02 0.0
2.56 0.02 0.0
2.58 0.02 0.0
2.6 0.02 0.0
2.62 0.02 0.0
2.64 0.02 0.0
2.66 0.02 0.0
2.68 0.02 0.0
2.7 0.02 0.0
2.72 0.02 0.0
2.74 0.02 0.0
2.76 0.02 0.0
2.78 0.02 0.0
2.8 0.02 0.0
2.82 0.02 0.0
2.84 0.02 0.0
2.86 0.02 0.0
2.88 0.02 0.0
2.9 0.02 0.0
2.92 0.02 0.0
2.94 0.02 0.0
2.96 0.02 0.0
2.98 0.02 0.0
3 0.02 0.0
0 0.04 0.0
0.02 0.04 0.0
0.04 0.04 0.0
0.06 0.04 0.0
0.08 0.04 0.0
0.1 0.04 0.0
0.12 0.04 0.0
0.14 0.04 0.0
0.16 0.04 0.0
0.18 0.04 0.0
0.2 0.04 0.0
0.22 0.04 0.0
0.24 0.04 0.0
0.26 0.04 0.0
0.28 0.04 0.0
0.3 0.04 0.0
0.32 0.04 0.0
0.34 0.04 0.0
0.36 0.04 0.0
0.38 0.04 0.0
0.4 0.04 0.0
0.42 0.04 0.0
0.44 0.04 0.0
0.46 0.04 0.0
0.48 0.04 0.0
0.5 0.04 0.0
0.52 0.04 0.0
0.54 0.04 0.0
0.56 0.04 0.0
0.58 0.04 0.0
0.6 0.04 0.0
0.62 0.04 0.0
0.64 0.04 0.0
0.66 0.04 0.0
0.68 0.04 0.0
0.7 0.04 0.0
0.72 0.04 0.0
0.74 0.04 0.0
0.76 0.04 0.0
0.78 0.04 0.0
0.8 0.04 0.0
0.82 0.04 0.0
0.84 0.04 0.0
0.86 0.04 0.0
0.88 0.04 0.0
0.9 0.04 0.0
0.92 0.04 0.0
0.94 0.04 0.0
0.96 0.04 0.0
0.98 0.04 0.0
1 0.04 0.0
1.02 0.0478135 0.0
1.04 0.0552589 0.0
1.06 0.0623433 0.0
1.08 0.0690731 0.0
1.1 0.0754544 0.0
1.12 0.0814928 0.0
1.14 0.0871933 0.0
1.16 0.0925609 0.0
1.18 0.0976 0.0
1.2 0.102315 0.0
1.22 0.106709 0.0
1.24 0.110785 0.0
1.26 0.114548 0.0
1.28 0.117999 0.0
1.3 0.121142 0.0
1.32 0.123979 0.0
1.34 0.126512 0.0
1.36 0.128742 0.0
1.38 0.130672 0.0
1.4 0.132302 0.0
1.42 0.133635 0.0
1.44 0.13467 0.0
1.46 0.135409 0.0
1.48 0.135852 0.0
1.5 0.136 0.0
1.52 0.135852 0.0
1.54 0.135409 0.0
1.56 0.13467 0.0
1.58 0.133635 0.0
1.6 0.132302 0.0
1.62 0.130672 0.0
1.64 0.128742 0.0
1.66 0.126512 0.0
1.68 0.123979 0.0
1.7 0.121142 0.0
1.72 0.117999 0.0
1.74 0.114548 0.0
1.76 0.110785 0.0
1.78 0.106709 0.0
1.8 0.102315 0.0
1.82 0.0976 0.0
1.84 0.0925609 0.0
1.86 0.0871933 0.0
1.88 0.0814928 0.0
1.9 0.0754544 0.0
1.92 0.0690731 0.0
1.94 0.0623433 0.0
1.96 0.0552589 0.0
1.98 0.0478135 0.0
2 0.04 0.0
2.02 0.04 0.0
2.04 0.04 0.0
2.06 0.04 0.0
2.08 0.04 0.0
2.1 0.04 0.0
2.12 0.04 0.0
2.14 0.04 0.0
2.16 0.04 0.0
2.18 0.04 0.0
2.2 0.04 0.0
2.22 0.04 0.0
2.24 0.04 0.0
2.26 0.04 0.0
2.28 0.04 0.0
2.3 0.04 0.0
2.32 0.04 0.0
2.34 0.04 0.0
2.36 0.04 0.0
2.38 0.04 0.0
2.4 0.04 0.0
2.42 0.04 0.0
2.44 0.04 0.0
2.46 0.04 0.0
2.48 0.04 0.0
2.5 0.04 0.0
2.52 0.04 0.0
2.54 0.04 0.0
2.56 0.04 0.0
2.58 0.04 0.0
2.6 0.04 0.0
2.62 0.04 0.0
2.64 0.04 0.0
2.66 0.04 0.0
2.68 0.04 0.0
2.7 0.04 0.0
2.72 0.04 0.0
2.74 0.04 0.0
2.76 0.04 0.0
2.78 0.04 0.0
2.8 0.04 0.0
2.82 0.04 0.0
2.84 0.04 0.0
2.86 0.04 0.0
2.88 0.04 0.0
2.9 0.04 0.0
2.92 0.04 0.0
2.94 0.04 0.0
2.96 0.04 0.0
2.98 0.04 0.0
3 0.04 0.0
0 0.06 0.0
0.02 0.06 0.0
0.04 0.06 0.0
0.06 0.06 0.0
0.08 0.06 0.0
0.1 0.06 0.0
0.12 0.06 0.0
0.14 0.06 0.0
0.16 0.06 0.0
0.18 0.06 0.0
0.2 0.06 0.0
0.22 0.06 0.0
0.24 0.06 0.0
0.26 0.06 0.0
0.28 0.06 0.0
0.3 0.06 0.0
0.32 0.06 0.0
0.34 0.06 0.0
0.36 0.06 0.0
0.38 0.06 0.0
0.4 0.06 0.0
0.42 0.06 0.0
0.44 0.06 0.0
0.46 0.06 0.0
0.48 0.06 0.0
0.5 0.06 0.0
0.52 0.06 0.0
0.54 0.06 0.0
0.56 0.06 0.0
0.58 0.06 0.0
0.6 0.06 0.0
0.62 0.06 0.0
0.64 0.06 0.0
0.66 0.06 0.0
0.68 0.06 0.0
0.7 0.06 0.0
0.72 0.06 0.0
0.74 0.06 0.0
0.76 0.06 0.0
0.78 0.06 0.0
0.8 0.06 0.0
0.82 0.06 0.0
0.84 0.06 0.0
0.86 0.06 0.0
0.88 0.06 0.0
0.9 0.06 0.0
0.92 0.06 0.0
0.94 0.06 0.0
0.96 0.06 0.0
0.98 0.06 0.0
1 0.06 0.0
1.02 0.0676507 0.0
1.04 0.074941 0.0
1.06 0.0818778 0.0
1.08 0.0884674 0.0
1.1 0.0947158 0.0
1.12 0.100628 0.0
1.14 0.10621 0.0
1.16 0.111466 0.0
1.18 0.1164 0.0
1.2 0.121016 0.0
1.22 0.125319 0.0
1.24 0.129311 0.0
1.26 0.132995 0.0
1.28 0.136374 0.0
1.3 0.139452 0.0
1.32 0.142229 0.0
1.34 0.144709 0.0
1.36 0.146893 0.0
1.38 0.148783 0.0
1.4 0.150379 0.0
1.42 0.151684 0.0
1.44 0.152698 0.0
1.46 0.153421 0.0
1.48 0.153855 0.0
1.5 0.154 0.0
1.52 0.153855 0.0
1.54 0.153421 0.0
1.56 0.152698 0.0
1.58 0.151684 0.0
1.6 0.150379 0.0
1.62 0.148783 0.0
1.64 0.146893 0.0
1.66 0.144709 0.0
1.68 0.142229 0.0
1.7 0.139452 0.0
1.72 0.136374 0.0
1.74 0.132995 0.0
1.76 0.129311 0.0
1.78 0.125319 0.0
1.8 0.121016 0.0
1.82 0.1164 0.0
1.84 0.111466 0.0
1.86 0.10621 0.0
1.88 0.100628 0.0
1.9 0.0947158 0.0
1.92 0.0884674 0.0
1.94 0.0818778 0.0
1.96 0.074941 0.0
1.98 0.0676507 0.0
2 0.06 0.0
2.02 0.06 0.0
2.04 0.06 0.0
2.06 0.06 0.0
2.08 0.06 0.0
2.1 0.06 0.0
2.12 0.06 0.0
2.14 0.06 0.0
2.16 0.06 0.0
2.18 0.06 0.0
2.2 0.06 0.0
2.22 0.06 0.0
2.24 0.06 0.0
2.26 0.06 0.0
2.28 0.06 0.0
2.3 0.06 0.0
2.32 0.06 0.0
2.34 0.06 0.0
2.36 0.06 0.0
2.38 0.06 0.0
2.4 0.06 0.0
2.42 0.06 0.0
2.44 0.06 0.0
2.46 0.06 0.0
2.48 0.06 0.0
2.5 0.06 0.0
2.52 0.06 0.0
2.54 0.06 0.0
2.56 0.06 0.0
2.58 0.06 0.0
2.6 0.06 0.0
2.62 0.06 0.0
2.64 0.06 0.0
2.66 0.06 0.0
2.68 0.06 0.0
2.7 0.06 0.0
2.72 0.06 0.0
2.74 0.06 0.0
2.76 0.06 0.0
2.78 0.06 0.0
2.8 0.06 0.0
2.82 0.06 0.0
2.84 0.06 0.0
2.86 0.06 0.0
2.88 0.06 0.0
2.9 0.06 0.0
2.92 0.06 0.0
2.94 0.06 0.0
2.96 0.06 0.0
2.98 0.06 0.0
3 0.06 0.0
0 0.08 0.0
0.02 0.08 0.0
0.04 0.08 0.0
0.06 0.08 0.0
0.08 0.08 0.0
0.1 0.08 0.0
0.12 0.08 0.0
0.14 0.08 0.0
0.16 0.08 0.0
0.18 0.08 0.0
0.2 0.08 0.0
0.22 0.08 0.0
0.24 0.08 0.0
0.26 0.08 0.0
0.28 0.08 0.0
0.3 0.08 0.0
0.32 0.08 0.0
0.34 0.08 0.0
0.36 0.08 0.0
0.38 0.08 0.0
0.4 0.08 0.0
0.42 0.08 0.0
0.44 0.08 0.0
0.46 0.08 0.0
0.48 0.08 0.0
0.5 0.08 0.0
0.52 0.08 0.0
0.54 0.08 0.0
0.56 0.08 0.0
0.58 0.08 0.0
0.6 0.08 0.0
0.62 0.08 0.0
0.64 0.08 0.0
0.66 0.08 0.0
0.68 0.08 0.0
0.7 0.08 0.0
0.72 0.08 0.0
0.74 0.08 0.0
0.76 0.08 0.0
0.78 0.08 0.0
0.8 0.08 0.0
0.82 0.08 0.0
0.84 0.08 0.0
0.86 0.08 0.0
0.88 0.08 0.0
0.9 0.08 0.0
0.92 0.08 0.0
0.94 0.08 0.0
0.96 0.08 0.0
0.98 0.08 0.0
1 0.08 0.0
1.02 0.0874879 0.0
1.04 0.0946232 0.0
1.06 0.101412 0.0
1.08 0.107862 0.0
1.1 0.113977 0.0
1.12 0.119764 0.0
1.14 0.125227 0.0
1.16 0.130371 0.0
1.18 0.1352 0.0
1.2 0.139718 0.0
1.22 0.143929 0.0
1.24 0.147836 0.0
1.26 0.151442 0.0
1.28 0.154749 0.0
1.3 0.157761 0.0
1.32 0.16048 0.0
1.34 0.162907 0.0
1.36 0.165044 0.0
1.38 0.166894 0.0
[...]
POINT_DATA 7701
SCALARS rho DOUBLE
LOOKUP_TABLE default
0.820943
0.82093
0.820904
0.820882
0.820869
0.820865
0.820871
0.820888
0.820916
0.820955
0.821006
0.82107
0.821147
0.821238
0.821344
0.821466
0.821605
0.821763
0.821941
0.822141
0.822366
0.822617
0.822897
0.82321
0.823557
0.823945
0.824376
0.824855
0.825389
0.825983
0.826645
0.827383
0.828208
0.829129
0.830162
0.831321
0.832625
0.834097
0.835764
0.837659
0.839828
0.842312
0.845212
0.848553
0.852624
0.857247
0.86353
0.870017
0.881622
0.889901
0.915626
0.916801
0.878882
0.855357
0.834415
0.81599
0.799251
0.783688
0.768992
0.754974
0.741517
0.728542
0.715996
0.703842
0.692057
0.680629
0.669554
0.658837
0.648493
0.638542
0.629011
0.619941
0.611387
0.603426
0.596156
0.589705
0.584236
0.57995
0.577092
0.575947
0.57683
0.580048
0.585858
0.594383
0.60554
0.618984
0.634124
0.650228
0.666585
0.682672
0.698243
0.713304
0.728062
0.742739
0.757719
0.772987
0.789505
0.805928
0.826747
0.843551
0.876611
0.885989
0.860338
0.849225
0.839789
0.832711
0.82712
0.822567
0.818772
0.815555
0.812793
0.810399
0.808308
0.806471
0.80485
0.803412
0.802132
0.800988
0.799963
0.799042
0.798212
0.79746
0.796779
0.796159
0.795593
0.795074
0.794598
0.79416
0.793754
0.793378
0.793029
0.792703
0.792399
0.792115
0.791848
0.791597
0.791361
0.791139
0.790929
0.790732
0.790545
0.790369
0.790203
0.790046
0.789896
0.789755
0.789619
0.789495
0.789362
0.789268
0.789251
0.82094
0.820927
0.820901
0.820879
0.820866
0.820862
0.820868
0.820884
0.820912
0.820951
0.821002
0.821066
0.821142
0.821233
0.821338
0.82146
0.821598
0.821756
0.821933
0.822133
0.822357
0.822607
0.822886
0.823197
0.823544
0.82393
0.824359
0.824836
0.825367
0.825959
0.826618
0.827352
0.828172
0.829089
0.830115
0.831266
0.832561
0.83402
0.835671
0.837545
0.839685
0.842132
0.844974
0.848237
0.852162
0.856604
0.862414
0.868445
0.8781
0.885222
0.901984
0.899416
0.86964
0.849911
0.831799
0.815321
0.799991
0.785512
0.771703
0.758448
0.745666
0.733304
0.721323
0.709694
0.698401
0.687435
0.676792
0.66648
0.656511
0.646906
0.637701
0.628938
0.620674
0.612985
0.605966
0.599738
0.594455
0.590307
0.587525
0.586374
0.587146
0.59013
0.595567
0.60358
0.614107
0.626848
0.641273
0.656705
0.67247
0.688044
0.703149
0.717745
0.731992
0.746071
0.760334
0.774719
0.790096
0.805134
0.823487
0.83825
0.863297
0.873182
0.857059
0.848439
0.840681
0.834425
0.829267
0.824953
0.821299
0.818168
0.815462
0.813106
0.811042
0.809224
0.807615
0.806187
0.804914
0.803775
0.802754
0.801835
0.801006
0.800256
0.799575
0.798955
0.798389
0.797871
0.797394
0.796955
0.796549
0.796173
0.795823
0.795497
0.795192
0.794907
0.79464
0.794388
0.794152
0.793929
0.793719
0.793521
0.793334
0.793158
0.792991
0.792833
0.792683
0.792542
0.792405
0.792281
0.792148
0.792052
0.792035
0.820931
0.820918
0.820892
0.82087
0.820856
0.820852
0.820858
0.820874
0.820901
0.82094
0.82099
0.821052
0.821128
0.821218
0.821322
0.821442
0.821579
0.821735
0.821911
0.822108
0.82233
0.822577
0.822853
0.823161
0.823504
0.823885
0.824309
0.824781
0.825306
0.825889
0.826539
0.827263
0.828071
0.828973
0.829981
0.83111
0.832378
0.833805
0.835415
0.837235
0.839306
0.841662
0.844374
0.847464
0.851105
0.855182
0.860218
0.865415
0.872424
0.877692
0.884728
0.880579
0.862038
0.846447
0.831044
0.816229
0.802034
0.788422
0.775335
0.76271
0.750498
0.738657
0.727158
0.71598
0.705112
0.694548
0.684291
0.674349
0.66474
0.655488
0.646624
0.638185
0.630223
0.62281
0.616035
0.610017
0.604899
0.600863
0.598122
0.596926
0.597547
0.600254
0.605275
0.612734
0.622592
0.634593
0.648268
0.662996
0.678141
0.693177
0.7078
0.721919
0.735648
0.749126
0.762662
0.776179
0.790362
0.804089
0.819685
0.832668
0.84895
0.859034
0.85386
0.848186
0.842341
0.837016
0.832346
0.828303
0.824808
0.821778
0.819139
0.816829
0.814797
0.813002
0.811411
0.809995
0.808731
0.8076
0.806584
0.805669
0.804843
0.804095
0.803416
0.802797
0.802232
0.801714
0.801238
0.800799
0.800393
0.800017
0.799667
0.799341
0.799036
0.79875
0.798482
0.79823
0.797994
0.797771
0.79756
0.797362
0.797175
0.796998
0.79683
0.796672
0.796522
0.79638
0.796243
0.796118
0.795985
0.795888
0.79587
0.820916
0.820903
0.820877
0.820855
0.820841
0.820836
0.820841
0.820856
0.820883
0.82092
0.820969
0.82103
0.821105
0.821192
0.821295
0.821413
0.821547
0.8217
0.821873
0.822067
0.822284
0.822528
0.822799
0.823101
0.823437
0.823811
0.824227
0.824689
0.825202
0.825773
0.826407
0.827114
0.8279
0.828777
0.829755
0.830848
0.832071
0.833442
0.834982
0.836713
0.838669
0.840873
0.843379
0.846195
0.849432
0.852981
0.857144
0.861288
0.86631
0.869667
0.873483
0.870032
0.855918
0.841961
0.828004
0.814442
0.801358
0.788731
0.776513
0.764659
0.753136
0.741919
0.730991
0.720341
0.709965
0.699862
0.690037
0.680502
0.671271
0.66237
0.653831
0.645697
0.638025
0.630885
0.624367
0.618581
0.613667
0.609792
0.607158
0.605995
0.606551
0.609074
0.613769
0.620751
0.62999
0.641262
0.654152
0.668105
0.68253
0.696929
0.710982
0.724564
0.737736
0.750602
0.763408
0.776105
0.789177
0.801847
0.815508
0.827378
0.840665
0.849704
0.8481
0.84455
0.840294
0.836069
0.832152
0.828626
0.825492
0.822718
0.820266
0.818094
0.816167
0.814453
0.812925
0.81156
0.810336
0.809238
0.808249
0.807356
0.806549
0.805816
0.80515
0.804543
0.803987
0.803477
0.803009
0.802576
0.802176
0.801804
0.801459
0.801136
0.800835
0.800553
0.800288
0.800039
0.799804
0.799583
0.799375
0.799178
0.798992
0.798817
0.79865
0.798493
0.798344
0.798203
0.798067
0.797942
0.79781
0.797714
0.797695
0.820896
0.820883
0.820857
0.820834
0.820819
0.820813
0.820818
0.820832
0.820857
0.820893
0.820941
0.821
0.821072
0.821157
0.821257
0.821372
0.821503
0.821652
0.821821
0.82201
0.822222
0.822459
0.822723
0.823018
0.823345
0.823709
0.824113
0.824562
0.82506
0.825613
0.826227
0.826909
0.827667
0.828511
0.829449
0.830493
0.831658
0.832956
0.834407
0.836026
0.837837
0.839857
0.842116
0.844612
0.847396
0.850369
0.853641
0.856757
0.859999
0.861788
0.862798
0.858732
0.84783
0.836249
0.824395
0.812522
0.800757
0.78917
0.777797
0.766656
0.755755
0.745096
0.734677
0.724498
0.714562
0.704874
0.695444
0.686285
0.677418
0.668872
0.660681
0.652886
0.645537
0.6387
0.63246
0.626923
0.622218
0.618506
0.615971
0.614825
0.615297
0.61761
0.621952
0.62843
0.637022
0.647541
0.659623
0.672775
0.686457
0.700193
0.713652
0.726676
0.739275
0.751515
0.763576
0.77543
0.787381
0.798909
0.810739
0.821198
0.831892
0.84
0.841208
0.839843
0.837281
0.834257
0.831166
0.828206
0.825464
0.822968
0.820716
0.818693
0.816879
0.815252
0.813792
0.812481
0.811302
0.810239
0.80928
0.808412
0.807625
0.80691
0.806259
0.805665
0.80512
0.80462
0.80416
0.803735
0.803342
0.802976
0.802636
0.802319
0.802022
0.801743
0.801482
0.801236
0.801005
0.800787
0.800581
0.800387
0.800203
0.80003
0.799865
0.79971
0.799562
0.799422
0.799287
0.799163
0.799032
0.798936
0.798917
0.820869
0.820856
0.82083
0.820807
0.820791
0.820785
0.820788
0.820801
0.820824
0.820859
0.820904
0.820961
0.82103
0.821112
0.821209
0.82132
0.821447
0.821591
0.821754
0.821937
0.822142
0.822371
0.822627
0.822911
0.823227
0.823578
0.823968
0.8244
0.824879
0.82541
0.825998
0.82665
0.827373
0.828174
0.829062
0.830047
0.83114
0.832351
0.833693
0.835179
0.836823
0.838632
0.84062
0.842774
0.845106
0.847518
0.85003
0.852278
0.85434
0.855112
0.854976
0.85126
0.842431
0.832277
0.821534
0.810577
0.799619
0.788774
0.778096
0.767608
0.757319
0.747233
0.73735
0.727675
0.718212
0.708972
0.699965
0.691207
0.682719
0.674527
0.666666
0.659179
0.652119
0.645556
0.639572
0.634269
0.629772
0.626229
0.623812
0.622718
0.623152
0.625316
0.629379
0.635433
0.643462
0.653296
0.664618
0.676986
0.689913
0.702955
0.715787
0.728233
0.740266
0.751922
0.76333
0.774484
0.785575
0.796268
0.806943
0.816509
0.825916
0.833238
0.835486
0.835309
0.833825
0.831694
0.82931
0.826899
0.824579
0.822408
0.820408
0.818582
0.816923
0.81542
0.814061
0.812831
0.811719
0.810711
0.809798
0.808969
0.808215
0.807529
0.806902
0.806328
0.805802
0.805318
0.804872
0.80446
0.804077
0.803722
0.803391
0.803082
0.802793
0.802521
0.802266
0.802026
0.8018
0.801587
0.801385
0.801195
0.801015
0.800845
0.800683
0.800531
0.800385
0.800248
0.800115
0.799993
0.799864
0.799769
0.799749
0.820837
0.820824
0.820798
0.820774
0.820757
0.82075
0.820752
0.820763
0.820785
0.820817
0.82086
0.820914
0.82098
0.821058
0.82115
0.821257
0.821379
0.821517
0.821673
0.821849
0.822046
0.822266
0.822511
0.822784
0.823086
0.823422
0.823794
0.824207
0.824663
0.825167
0.825726
0.826342
0.827024
0.827777
0.828608
0.829525
0.830536
0.831648
0.832871
0.834211
0.835673
0.837259
0.838966
0.840771
0.842657
0.84453
0.846346
0.847819
0.848899
0.848815
0.847767
0.84392
0.836239
0.827317
0.817836
0.808087
0.798226
0.788344
0.778501
0.768738
0.759083
0.749561
0.740188
0.730979
0.72195
0.713115
0.70449
0.696097
0.687957
0.680102
0.67257
0.665406
0.65866
0.652395
0.646689
0.641639
0.637361
0.633994
0.631698
0.63065
0.631037
0.63304
0.636806
0.642419
0.649864
0.658997
0.669542
0.681111
0.693268
0.7056
0.71779
0.729642
0.741092
0.752144
0.762881
0.773303
0.783522
0.793321
0.802895
0.811518
0.819857
0.826563
0.829515
0.83038
0.829949
0.828738
0.827104
0.825281
0.823415
0.821592
0.819861
0.818244
0.816749
0.815376
0.814121
0.812976
0.811933
0.810983
0.810118
0.80933
0.80861
0.807952
0.807351
0.806799
0.806292
0.805825
0.805394
0.804995
0.804624
0.80428
0.803958
0.803658
0.803377
0.803113
0.802865
0.802631
0.802411
0.802203
0.802006
0.80182
0.801644
0.801478
0.80132
0.80117
0.801027
0.800893
0.800762
0.800642
0.800515
0.800421
0.800401
0.8208
0.820787
0.82076
0.820735
0.820718
0.820709
0.820709
0.820719
0.820738
0.820768
0.820808
0.820858
0.820921
0.820995
0.821082
0.821183
0.821299
0.821431
0.821579
0.821747
0.821934
0.822143
0.822376
0.822635
0.822922
0.823241
0.823593
0.823982
0.824413
0.824888
0.825411
0.825988
0.826624
0.827322
0.82809
0.828932
0.829854
0.83086
0.831955
0.833142
0.834418
0.835779
0.837212
0.838688
0.840173
0.841577
0.842835
0.843712
0.844128
0.84352
0.842044
0.838396
0.831739
0.823843
0.815273
0.806309
0.797129
0.787857
0.778578
0.769347
0.760202
0.751168
0.742264
0.733506
0.724908
0.716485
0.708256
0.700241
0.692464
0.684955
0.677748
0.670886
0.664424
0.658424
0.652966
0.648141
0.644062
0.640857
0.638676
0.63768
0.638039
0.639914
0.643436
0.648678
0.655623
0.664145
0.673995
0.684831
0.69626
0.707905
0.719463
0.730736
0.741637
0.75215
0.762321
0.772154
0.781715
0.790851
0.79967
0.807632
0.815258
0.821507
0.824763
0.826205
0.826424
0.825838
0.824758
0.823406
0.821933
0.820433
0.818965
0.817564
0.816246
0.815018
0.813883
0.812838
0.811879
0.810999
0.810194
0.809456
0.80878
0.80816
0.807591
0.807067
0.806585
0.80614
0.805729
0.805347
0.804993
0.804662
0.804354
0.804066
0.803795
0.803541
0.803302
0.803077
0.802864
0.802663
0.802473
0.802293
0.802123
0.801961
0.801808
0.801662
0.801523
0.801392
0.801265
0.801148
0.801024
0.800932
0.800912
0.820757
0.820744
0.820716
0.820691
0.820673
0.820662
0.820661
0.820669
0.820685
0.820712
0.820748
0.820795
0.820853
0.820923
0.821005
0.8211
0.821209
0.821332
0.821473
0.82163
0.821807
0.822004
0.822223
0.822467
0.822737
0.823036
0.823366
0.823731
0.824132
0.824574
0.82506
0.825594
0.826179
0.826819
0.827519
0.828281
0.829108
0.830004
0.830967
0.831996
0.833086
0.834223
0.835389
0.83655
0.837662
0.83864
0.839407
0.839771
0.839642
0.838597
0.836767
0.833144
0.827068
0.819894
0.812108
0.803952
0.795574
0.787071
0.778509
0.769937
0.761391
0.752902
0.744495
0.736192
0.728016
0.719987
0.712128
0.704462
0.697017
0.689824
0.682925
0.676366
0.670198
0.66448
0.659286
0.654705
0.650839
0.647809
0.645751
0.644812
0.645145
0.64689
0.650162
0.655024
0.661458
0.669354
0.678497
0.688587
0.699277
0.710223
0.721138
0.731817
0.742155
0.752112
0.761705
0.770931
0.779832
0.788299
0.796399
0.803728
0.810724
0.816566
0.819995
0.821896
0.822699
0.822715
0.822195
0.821333
0.820274
0.819116
0.817928
0.816755
0.815623
0.814548
0.813539
0.812598
0.811725
0.810918
0.810173
0.809487
0.808856
0.808274
0.807738
0.807244
0.806787
0.806365
0.805973
0.805609
0.805271
0.804955
0.80466
0.804384
0.804125
0.803881
0.803651
0.803435
0.80323
0.803037
0.802854
0.80268
0.802516
0.802359
0.802211
0.80207
0.801935
0.801807
0.801683
0.80157
0.801449
0.801359
0.801339
0.82071
0.820696
0.820668
0.820642
0.820622
0.82061
0.820607
0.820612
0.820626
0.820649
0.820682
0.820725
0.820778
0.820842
0.820918
0.821006
0.821108
0.821223
0.821354
0.821501
0.821665
0.821849
0.822054
0.822281
0.822532
0.82281
0.823116
0.823453
0.823823
0.82423
0.824676
0.825163
0.825695
0.826273
0.826901
0.82758
0.828311
0.829094
0.829925
0.8308
0.831708
0.832634
0.833555
0.834433
0.835222
0.835844
0.836221
0.836197
0.835689
0.83437
0.832365
0.828888
0.823394
0.816913
0.809822
0.802317
0.794532
0.786567
0.778497
0.770383
0.762271
0.754199
0.746195
0.738284
0.730487
0.722828
0.715327
0.708009
0.700901
0.694035
0.687447
0.681179
0.675283
0.669819
0.664861
0.660491
0.65681
0.65393
0.651977
0.651084
0.65139
0.653021
0.656078
0.660613
0.66661
0.673969
0.682497
0.691927
0.701948
0.712249
0.722559
0.732682
0.742501
0.751962
0.761062
0.769792
0.778173
0.786122
0.793684
0.800537
0.807063
0.812599
0.816112
0.818292
0.819471
0.819898
0.81978
0.819289
0.818558
0.817687
0.816744
0.81578
0.814825
0.8139
0.813018
0.812184
0.811403
0.810675
0.809998
0.809371
0.80879
0.808252
0.807754
0.807294
0.806867
0.806471
0.806104
0.805762
0.805443
0.805145
0.804866
0.804604
0.804359
0.804127
0.803909
0.803703
0.803509
0.803324
0.803149
0.802984
0.802826
0.802676
0.802534
0.802398
0.802269
0.802146
0.802026
0.801916
0.801799
0.801712
0.801692
0.820657
0.820643
0.820615
0.820588
0.820567
0.820553
0.820547
0.82055
0.820561
0.820581
0.820609
0.820648
0.820696
0.820754
0.820823
0.820904
0.820997
0.821103
0.821224
0.821359
0.821511
0.821681
0.821869
0.822078
0.822309
0.822564
0.822844
0.823152
0.82349
0.823859
0.824262
0.824701
0.825177
0.825692
0.826246
0.826841
0.827474
0.828143
0.828843
0.829566
0.830299
0.831024
0.831714
0.832331
0.832829
0.833135
0.833178
0.832825
0.832006
0.830463
0.82831
0.824903
0.819783
0.813786
0.807232
0.800296
0.793094
0.785714
0.778219
0.770659
0.763075
0.755498
0.747957
0.740477
0.733084
0.725802
0.718656
0.711673
0.704881
0.698315
0.692013
0.686023
0.680399
0.675196
0.670483
0.666339
0.662857
0.66014
0.658303
0.657468
0.657756
0.65928
0.662124
0.666332
0.671889
0.678703
0.686607
0.695369
0.704713
0.714358
0.724055
0.733611
0.742901
0.751856
0.760456
0.768684
0.776551
0.783991
0.79104
0.797442
0.803527
0.808761
0.81229
0.814671
0.816166
0.816965
0.817232
0.81711
0.816715
0.81614
0.815455
0.814709
0.81394
0.813173
0.812423
0.811703
0.811017
0.81037
0.809763
0.809195
0.808665
0.808173
0.807714
0.807288
0.806892
0.806523
0.80618
0.805859
0.80556
0.80528
0.805017
0.804771
0.804539
0.80432
0.804114
0.803919
0.803734
0.803559
0.803393
0.803235
0.803085
0.802942
0.802806
0.802676
0.802552
0.802433
0.802318
0.802212
0.802099
0.802015
0.801995
0.8206
0.820586
0.820557
0.820529
0.820506
0.820491
0.820483
0.820482
0.82049
0.820506
0.82053
0.820563
0.820606
0.820658
0.82072
0.820793
0.820877
0.820973
0.821083
0.821206
0.821344
0.821499
0.82167
0.82186
0.822069
0.8223
0.822554
0.822831
0.823134
0.823465
0.823824
0.824212
0.824632
0.825081
0.825562
0.826072
0.826608
0.827166
0.82774
0.828319
0.828888
0.829428
0.829911
0.8303
0.830549
0.830595
0.830372
0.829768
0.828728
0.827043
0.824819
0.821531
0.816791
0.811273
0.805235
0.798817
0.792114
0.785203
0.778145
0.770994
0.763794
0.756584
0.749395
0.742257
0.735197
0.728241
0.721414
0.714744
0.708258
0.701991
0.69598
0.690266
0.684898
0.679935
0.675441
0.671494
0.668181
0.665599
0.663854
0.663058
0.66332
0.664739
0.667392
0.671314
0.67649
0.682837
0.690205
0.698385
0.707132
0.71619
0.725329
0.734366
0.743173
0.751676
0.759841
0.767645
0.77509
0.782119
0.788761
0.794808
0.800553
0.805554
0.809086
0.811602
0.813315
0.814378
0.814925
0.81508
0.814947
0.81461
0.814138
0.813581
0.812977
0.812353
0.811728
0.811116
0.810525
0.809959
0.809423
0.808917
0.808442
0.807997
0.807581
0.807193
0.80683
0.806491
0.806175
0.805879
0.805602
0.805342
0.805098
0.804869
0.804652
0.804448
0.804256
0.804073
0.8039
0.803736
0.80358
0.803431
0.803289
0.803154
0.803025
0.802902
0.802784
0.802671
0.802561
0.802459
0.802351
0.80227
0.802251
0.820538
0.820524
0.820494
0.820465
0.820441
0.820423
0.820413
0.82041
0.820414
0.820426
0.820445
0.820473
0.82051
0.820555
0.820609
0.820674
0.820749
0.820835
0.820933
0.821043
0.821167
0.821305
0.821458
0.821628
0.821815
0.822021
0.822246
0.822492
0.82276
0.82305
0.823364
0.823702
0.824063
0.824448
0.824854
0.82528
0.825721
0.826171
0.826623
0.827064
0.827479
0.827846
0.828139
0.828322
0.828352
0.82817
0.82772
0.826908
0.825687
0.823887
0.821607
0.818401
0.813933
0.808769
0.80313
0.797137
0.790876
0.784417
0.777815
0.771116
0.76436
0.75758
0.750805
0.744062
0.737377
0.730775
0.724284
0.71793
0.711745
0.705761
0.700017
0.694559
0.68944
0.684713
0.680443
0.676701
0.673567
0.671132
0.669492
0.668747
0.668995
0.670322
0.672792
0.676434
0.681232
0.687112
0.69394
0.701535
0.709679
0.718144
0.726719
0.73523
0.743549
0.751593
0.75932
0.766701
0.773729
0.780357
0.78661
0.792314
0.797727
0.802486
0.805978
0.808577
0.810459
0.811747
0.81255
0.812969
0.813092
0.812996
0.812742
0.812379
0.811946
0.811472
0.810977
0.810477
0.809983
0.809502
0.80904
0.808598
0.808179
0.807782
0.807409
0.807059
0.80673
0.806422
0.806132
0.805861
0.805606
0.805367
0.805142
0.804929
0.804729
0.80454
0.804361
0.804191
0.80403
0.803876
0.80373
0.803591
0.803458
0.803331
0.803209
0.803093
0.802981
0.802874
0.80277
0.802673
0.80257
0.802492
0.802473
0.820472
0.820458
0.820428
0.820397
0.820371
0.820352
0.820339
0.820332
0.820333
0.82034
0.820355
0.820377
0.820407
0.820445
0.820492
0.820548
0.820613
0.820688
0.820773
0.82087
0.820979
0.8211
0.821235
0.821384
0.821548
0.821728
0.821924
0.822138
0.82237
0.82262
0.822888
0.823174
0.823478
0.823798
0.824132
0.824475
0.824824
0.825172
0.825508
0.825821
0.826094
0.826306
0.826432
0.826436
0.826279
0.825911
0.82528
0.824308
0.822956
0.821085
0.818785
0.81568
0.811484
0.806669
0.801419
0.795832
0.78998
0.783919
0.7777
0.771365
0.764954
0.758502
0.752042
0.745602
0.739212
0.732899
0.726691
0.720615
0.714704
0.70899
0.703511
0.698307
0.693426
0.688922
0.684854
0.681291
0.67831
0.675995
0.674436
0.673722
0.673943
0.675176
0.677476
0.680869
0.685337
0.690813
0.697178
0.704267
0.711886
0.719828
0.7279
0.735936
0.743814
0.751448
0.758789
0.765802
0.772477
0.77877
0.784702
0.790129
0.795279
0.799848
0.803307
0.805966
0.807973
0.809429
0.810425
0.811046
0.811369
0.811464
0.811388
0.811188
0.810902
0.810558
0.81018
0.809783
0.809381
0.80898
0.808588
0.80821
0.807846
0.8075
0.807171
0.80686
0.806567
0.80629
0.80603
0.805785
0.805555
0.805337
0.805132
0.804939
0.804756
0.804583
0.804419
0.804263
0.804115
0.803974
0.803839
0.80371
0.803587
0.803469
0.803356
0.803247
0.803142
0.803042
0.802944
0.802852
0.802755
0.802681
0.802663
0.820403
0.820388
0.820357
0.820325
0.820298
0.820276
0.82026
0.82025
0.820247
0.82025
0.820259
0.820276
0.820299
0.82033
0.820368
0.820415
0.82047
0.820533
0.820606
0.820689
0.820782
0.820886
0.821002
0.821129
0.82127
0.821423
0.82159
0.821771
0.821966
0.822175
0.822398
0.822633
0.82288
0.823136
0.823398
0.823662
0.823923
0.824171
0.824399
0.824591
0.824733
0.824803
0.824776
0.824621
0.824302
0.823772
0.822988
0.821883
0.820427
0.818501
0.816189
0.813167
0.809184
0.804642
0.799702
0.794448
0.788944
0.783243
0.77739
0.771425
0.765383
0.759298
0.753196
0.747107
0.741055
0.735067
0.72917
0.723391
0.717761
0.712312
0.707082
0.702115
0.69746
0.69317
0.689302
0.685922
0.6831
0.680914
0.679445
0.678776
0.678983
0.680134
0.682276
0.685429
0.689575
0.694652
0.700556
0.70714
0.714233
0.72165
0.729214
0.736774
0.744207
0.751428
0.758382
0.76503
0.771356
0.77732
0.782941
0.788095
0.792982
0.797351
0.800747
0.80343
0.805525
0.807116
0.808279
0.809083
0.809596
0.809877
0.809978
0.809942
0.809805
0.809597
0.809338
0.809048
0.80874
0.808422
0.808104
0.80779
0.807483
0.807188
0.806904
0.806633
0.806376
0.806132
0.805901
0.805682
0.805476
0.805281
0.805097
0.804922
0.804757