# vtk DataFile Version 3.1
Results produced by Sim2024
ASCII
DATASET STRUCTURED_GRID
DIMENSIONS 301 101 1
POINTS 30401 DOUBLE
0.00000000e+00 0.00000000e+00 0.0
1.00000000e-02 0.00000000e+00 0.0
2.00000000e-02 0.00000000e+00 0.0
3.00000000e-02 0.00000000e+00 0.0
4.00000000e-02 0.00000000e+00 0.0
5.00000000e-02 0.00000000e+00 0.0
6.00000000e-02 0.00000000e+00 0.0
7.00000000e-02 0.00000000e+00 0.0
8.00000000e-02 0.00000000e+00 0.0
9.00000000e-02 0.00000000e+00 0.0
1.00000000e-01 0.00000000e+00 0.0
1.10000000e-01 0.00000000e+00 0.0
1.20000000e-01 0.00000000e+00 0.0
1.30000000e-01 0.00000000e+00 0.0
1.40000000e-01 0.00000000e+00 0.0
1.50000000e-01 0.00000000e+00 0.0
1.60000000e-01 0.00000000e+00 0.0
1.70000000e-01 0.00000000e+00 0.0
1.80000000e-01 0.00000000e+00 0.0
1.90000000e-01 0.00000000e+00 0.0
2.00000000e-01 0.00000000e+00 0.0
2.10000000e-01 0.00000000e+00 0.0
2.20000000e-01 0.00000000e+00 0.0
2.30000000e-01 0.00000000e+00 0.0
2.40000000e-01 0.00000000e+00 0.0
2.50000000e-01 0.00000000e+00 0.0
2.60000000e-01 0.00000000e+00 0.0
2.70000000e-01 0.00000000e+00 0.0
2.80000000e-01 0.00000000e+00 0.0
2.90000000e-01 0.00000000e+00 0.0
3.00000000e-01 0.00000000e+00 0.0
3.10000000e-01 0.00000000e+00 0.0
3.20000000e-01 0.00000000e+00 0.0
3.30000000e-01 0.00000000e+00 0.0
3.40000000e-01 0.00000000e+00 0.0
3.50000000e-01 0.00000000e+00 0.0
3.60000000e-01 0.00000000e+00 0.0
3.70000000e-01 0.00000000e+00 0.0
3.80000000e-01 0.00000000e+00 0.0
3.90000000e-01 0.00000000e+00 0.0
4.00000000e-01 0.00000000e+00 0.0
4.10000000e-01 0.00000000e+00 0.0
4.20000000e-01 0.00000000e+00 0.0
4.30000000e-01 0.00000000e+00 0.0
4.40000000e-01 0.00000000e+00 0.0
4.50000000e-01 0.00000000e+00 0.0
4.60000000e-01 0.00000000e+00 0.0
4.70000000e-01 0.00000000e+00 0.0
4.80000000e-01 0.00000000e+00 0.0
4.90000000e-01 0.00000000e+00 0.0
5.00000000e-01 0.00000000e+00 0.0
5.10000000e-01 0.00000000e+00 0.0
5.20000000e-01 0.00000000e+00 0.0
5.30000000e-01 0.00000000e+00 0.0
5.40000000e-01 0.00000000e+00 0.0
5.50000000e-01 0.00000000e+00 0.0
5.60000000e-01 0.00000000e+00 0.0
5.70000000e-01 0.00000000e+00 0.0
5.80000000e-01 0.00000000e+00 0.0
5.90000000e-01 0.00000000e+00 0.0
6.00000000e-01 0.00000000e+00 0.0
6.10000000e-01 0.00000000e+00 0.0
6.20000000e-01 0.00000000e+00 0.0
6.30000000e-01 0.00000000e+00 0.0
6.40000000e-01 0.00000000e+00 0.0
6.50000000e-01 0.00000000e+00 0.0
6.60000000e-01 0.00000000e+00 0.0
6.70000000e-01 0.00000000e+00 0.0
6.80000000e-01 0.00000000e+00 0.0
6.90000000e-01 0.00000000e+00 0.0
7.00000000e-01 0.00000000e+00 0.0
7.10000000e-01 0.00000000e+00 0.0
7.20000000e-01 0.00000000e+00 0.0
7.30000000e-01 0.00000000e+00 0.0
7.40000000e-01 0.00000000e+00 0.0
7.50000000e-01 0.00000000e+00 0.0
7.60000000e-01 0.00000000e+00 0.0
7.70000000e-01 0.00000000e+00 0.0
7.80000000e-01 0.00000000e+00 0.0
7.90000000e-01 0.00000000e+00 0.0
8.00000000e-01 0.00000000e+00 0.0
8.10000000e-01 0.00000000e+00 0.0
8.20000000e-01 0.00000000e+00 0.0
8.30000000e-01 0.00000000e+00 0.0
8.40000000e-01 0.00000000e+00 0.0
8.50000000e-01 0.00000000e+00 0.0
8.60000000e-01 0.00000000e+00 0.0
8.70000000e-01 0.00000000e+00 0.0
8.80000000e-01 0.00000000e+00 0.0
8.90000000e-01 0.00000000e+00 0.0
9.00000000e-01 0.00000000e+00 0.0
9.10000000e-01 0.00000000e+00 0.0
9.20000000e-01 0.00000000e+00 0.0
9.30000000e-01 0.00000000e+00 0.0
9.40000000e-01 0.00000000e+00 0.0
9.50000000e-01 0.00000000e+00 0.0
9.60000000e-01 0.00000000e+00 0.0
9.70000000e-01 0.00000000e+00 0.0
9.80000000e-01 0.00000000e+00 0.0
9.90000000e-01 0.00000000e+00 0.0
1.00000000e+00 0.00000000e+00 0.0
1.01000000e+00 4.11793442e-03 0.0
1.02000000e+00 8.13906484e-03 0.0
1.03000000e+00 1.20643547e-02 0.0
1.04000000e+00 1.58947323e-02 0.0
1.05000000e+00 1.96310918e-02 0.0
1.06000000e+00 2.32742947e-02 0.0
1.07000000e+00 2.68251709e-02 0.0
1.08000000e+00 3.02845199e-02 0.0
1.09000000e+00 3.36531117e-02 0.0
1.10000000e+00 3.69316877e-02 0.0
1.11000000e+00 4.01209618e-02 0.0
1.12000000e+00 4.32216214e-02 0.0
1.13000000e+00 4.62343279e-02 0.0
1.14000000e+00 4.91597176e-02 0.0
1.15000000e+00 5.19984026e-02 0.0
1.16000000e+00 5.47509713e-02 0.0
1.17000000e+00 5.74179894e-02 0.0
1.18000000e+00 6.00000000e-02 0.0
1.19000000e+00 6.24975248e-02 0.0
1.20000000e+00 6.49110641e-02 0.0
1.21000000e+00 6.72410978e-02 0.0
1.22000000e+00 6.94880858e-02 0.0
1.23000000e+00 7.16524682e-02 0.0
1.24000000e+00 7.37346662e-02 0.0
1.25000000e+00 7.57350822e-02 0.0
1.26000000e+00 7.76541003e-02 0.0
1.27000000e+00 7.94920867e-02 0.0
1.28000000e+00 8.12493902e-02 0.0
1.29000000e+00 8.29263424e-02 0.0
1.30000000e+00 8.45232579e-02 0.0
1.31000000e+00 8.60404348e-02 0.0
1.32000000e+00 8.74781552e-02 0.0
1.33000000e+00 8.88366848e-02 0.0
1.34000000e+00 9.01162738e-02 0.0
1.35000000e+00 9.13171570e-02 0.0
1.36000000e+00 9.24395537e-02 0.0
1.37000000e+00 9.34836682e-02 0.0
1.38000000e+00 9.44496900e-02 0.0
1.39000000e+00 9.53377938e-02 0.0
1.40000000e+00 9.61481397e-02 0.0
1.41000000e+00 9.68808735e-02 0.0
1.42000000e+00 9.75361267e-02 0.0
1.43000000e+00 9.81140166e-02 0.0
1.44000000e+00 9.86146465e-02 0.0
1.45000000e+00 9.90381057e-02 0.0
1.46000000e+00 9.93844697e-02 0.0
1.47000000e+00 9.96538001e-02 0.0
1.48000000e+00 9.98461447e-02 0.0
1.49000000e+00 9.99615379e-02 0.0
1.50000000e+00 1.00000000e-01 0.0
1.51000000e+00 9.99615379e-02 0.0
1.52000000e+00 9.98461447e-02 0.0
1.53000000e+00 9.96538001e-02 0.0
1.54000000e+00 9.93844697e-02 0.0
1.55000000e+00 9.90381057e-02 0.0
1.56000000e+00 9.86146465e-02 0.0
1.57000000e+00 9.81140166e-02 0.0
1.58000000e+00 9.75361267e-02 0.0
1.59000000e+00 9.68808735e-02 0.0
1.60000000e+00 9.61481397e-02 0.0
1.61000000e+00 9.53377938e-02 0.0
1.62000000e+00 9.44496900e-02 0.0
1.63000000e+00 9.34836682e-02 0.0
1.64000000e+00 9.24395537e-02 0.0
1.65000000e+00 9.13171570e-02 0.0
1.66000000e+00 9.01162738e-02 0.0
1.67000000e+00 8.88366848e-02 0.0
1.68000000e+00 8.74781552e-02 0.0
1.69000000e+00 8.60404348e-02 0.0
1.70000000e+00 8.45232579e-02 0.0
1.71000000e+00 8.29263424e-02 0.0
1.72000000e+00 8.12493902e-02 0.0
1.73000000e+00 7.94920867e-02 0.0
1.74000000e+00 7.76541003e-02 0.0
1.75000000e+00 7.57350822e-02 0.0
1.76000000e+00 7.37346662e-02 0.0
1.77000000e+00 7.16524682e-02 0.0
1.78000000e+00 6.94880858e-02 0.0
1.79000000e+00 6.72410978e-02 0.0
1.80000000e+00 6.49110641e-02 0.0
1.81000000e+00 6.24975248e-02 0.0
1.82000000e+00 6.00000000e-02 0.0
1.83000000e+00 5.74179894e-02 0.0
1.84000000e+00 5.47509713e-02 0.0
1.85000000e+00 5.19984026e-02 0.0
1.86000000e+00 4.91597176e-02 0.0
1.87000000e+00 4.62343279e-02 0.0
1.88000000e+00 4.32216214e-02 0.0
1.89000000e+00 4.01209618e-02 0.0
1.90000000e+00 3.69316877e-02 0.0
1.91000000e+00 3.36531117e-02 0.0
1.92000000e+00 3.02845199e-02 0.0
1.93000000e+00 2.68251709e-02 0.0
1.94000000e+00 2.32742947e-02 0.0
1.95000000e+00 1.96310918e-02 0.0
1.96000000e+00 1.58947323e-02 0.0
1.97000000e+00 1.20643547e-02 0.0
1.98000000e+00 8.13906484e-03 0.0
1.99000000e+00 4.11793442e-03 0.0
2.00000000e+00 0.00000000e+00 0.0
2.01000000e+00 0.00000000e+00 0.0
2.02000000e+00 0.00000000e+00 0.0
2.03000000e+00 0.00000000e+00 0.0
2.04000000e+00 0.00000000e+00 0.0
2.05000000e+00 0.00000000e+00 0.0
2.06000000e+00 0.00000000e+00 0.0
2.07000000e+00 0.00000000e+00 0.0
2.08000000e+00 0.00000000e+00 0.0
2.09000000e+00 0.00000000e+00 0.0
2.10000000e+00 0.00000000e+00 0.0
2.11000000e+00 0.00000000e+00 0.0
2.12000000e+00 0.00000000e+00 0.0
2.13000000e+00 0.00000000e+00 0.0
2.14000000e+00 0.00000000e+00 0.0
2.15000000e+00 0.00000000e+00 0.0
2.16000000e+00 0.00000000e+00 0.0
2.17000000e+00 0.00000000e+00 0.0
2.18000000e+00 0.00000000e+00 0.0
2.19000000e+00 0.00000000e+00 0.0
2.20000000e+00 0.00000000e+00 0.0
2.21000000e+00 0.00000000e+00 0.0
2.22000000e+00 0.00000000e+00 0.0
2.23000000e+00 0.00000000e+00 0.0
2.24000000e+00 0.00000000e+00 0.0
2.25000000e+00 0.00000000e+00 0.0
2.26000000e+00 0.00000000e+00 0.0
2.27000000e+00 0.00000000e+00 0.0
2.28000000e+00 0.00000000e+00 0.0
2.29000000e+00 0.00000000e+00 0.0
2.30000000e+00 0.00000000e+00 0.0
2.31000000e+00 0.00000000e+00 0.0
2.32000000e+00 0.00000000e+00 0.0
2.33000000e+00 0.00000000e+00 0.0
2.34000000e+00 0.00000000e+00 0.0
2.35000000e+00 0.00000000e+00 0.0
2.36000000e+00 0.00000000e+00 0.0
2.37000000e+00 0.00000000e+00 0.0
2.38000000e+00 0.00000000e+00 0.0
2.39000000e+00 0.00000000e+00 0.0
2.40000000e+00 0.00000000e+00 0.0
2.41000000e+00 0.00000000e+00 0.0
2.42000000e+00 0.00000000e+00 0.0
2.43000000e+00 0.00000000e+00 0.0
2.44000000e+00 0.00000000e+00 0.0
2.45000000e+00 0.00000000e+00 0.0
2.46000000e+00 0.00000000e+00 0.0
2.47000000e+00 0.00000000e+00 0.0
2.48000000e+00 0.00000000e+00 0.0
2.49000000e+00 0.00000000e+00 0.0
2.50000000e+00 0.00000000e+00 0.0
2.51000000e+00 0.00000000e+00 0.0
2.52000000e+00 0.00000000e+00 0.0
2.53000000e+00 0.00000000e+00 0.0
2.54000000e+00 0.00000000e+00 0.0
2.55000000e+00 0.00000000e+00 0.0
2.56000000e+00 0.00000000e+00 0.0
2.57000000e+00 0.00000000e+00 0.0
2.58000000e+00 0.00000000e+00 0.0
2.59000000e+00 0.00000000e+00 0.0
2.60000000e+00 0.00000000e+00 0.0
2.61000000e+00 0.00000000e+00 0.0
2.62000000e+00 0.00000000e+00 0.0
2.63000000e+00 0.00000000e+00 0.0
2.64000000e+00 0.00000000e+00 0.0
2.65000000e+00 0.00000000e+00 0.0
2.66000000e+00 0.00000000e+00 0.0
2.67000000e+00 0.00000000e+00 0.0
2.68000000e+00 0.00000000e+00 0.0
2.69000000e+00 0.00000000e+00 0.0
2.70000000e+00 0.00000000e+00 0.0
2.71000000e+00 0.00000000e+00 0.0
2.72000000e+00 0.00000000e+00 0.0
2.73000000e+00 0.00000000e+00 0.0
2.74000000e+00 0.00000000e+00 0.0
2.75000000e+00 0.00000000e+00 0.0
2.76000000e+00 0.00000000e+00 0.0
2.77000000e+00 0.00000000e+00 0.0
2.78000000e+00 0.00000000e+00 0.0
2.79000000e+00 0.00000000e+00 0.0
2.80000000e+00 0.00000000e+00 0.0
2.81000000e+00 0.00000000e+00 0.0
2.82000000e+00 0.00000000e+00 0.0
2.83000000e+00 0.00000000e+00 0.0
2.84000000e+00 0.00000000e+00 0.0
2.85000000e+00 0.00000000e+00 0.0
2.86000000e+00 0.00000000e+00 0.0
2.87000000e+00 0.00000000e+00 0.0
2.88000000e+00 0.00000000e+00 0.0
2.89000000e+00 0.00000000e+00 0.0
[...]
POINT_DATA 30401
SCALARS rho DOUBLE
LOOKUP_TABLE default
8.10639750e-01
8.10640878e-01
8.10644616e-01
8.10650997e-01
8.10659897e-01
8.10671301e-01
8.10685248e-01
8.10701777e-01
8.10720919e-01
8.10742711e-01
8.10767194e-01
8.10794415e-01
8.10824429e-01
8.10857294e-01
8.10893074e-01
8.10931839e-01
8.10973666e-01
8.11018638e-01
8.11066845e-01
8.11118381e-01
8.11173350e-01
8.11231864e-01
8.11294038e-01
8.11360001e-01
8.11429884e-01
8.11503832e-01
8.11581995e-01
8.11664534e-01
8.11751620e-01
8.11843433e-01
8.11940165e-01
8.12042019e-01
8.12149209e-01
8.12261962e-01
8.12380520e-01
8.12505135e-01
8.12636078e-01
8.12773633e-01
8.12918101e-01
8.13069803e-01
8.13229074e-01
8.13396274e-01
8.13571780e-01
8.13755995e-01
8.13949344e-01
8.14152277e-01
8.14365275e-01
8.14588846e-01
8.14823529e-01
8.15069898e-01
8.15328564e-01
8.15600176e-01
8.15885427e-01
8.16185053e-01
8.16499843e-01
8.16830635e-01
8.17178329e-01
8.17543885e-01
8.17928333e-01
8.18332778e-01
8.18758405e-01
8.19206488e-01
8.19678402e-01
8.20175627e-01
8.20699762e-01
8.21252538e-01
8.21835831e-01
8.22451678e-01
8.23102296e-01
8.23790105e-01
8.24517749e-01
8.25288126e-01
8.26104422e-01
8.26970149e-01
8.27889190e-01
8.28865853e-01
8.29904938e-01
8.31011810e-01
8.32192493e-01
8.33453786e-01
8.34803401e-01
8.36250136e-01
8.37804090e-01
8.39476941e-01
8.41282301e-01
8.43236171e-01
8.45357562e-01
8.47669319e-01
8.50199282e-01
8.52981935e-01
8.56060837e-01
8.59492344e-01
8.63351360e-01
8.67740331e-01
8.72802146e-01
8.78730961e-01
8.85769700e-01
8.94041574e-01
9.02698666e-01
9.07608943e-01
9.25297396e-01
9.26485519e-01
8.96891874e-01
8.75095900e-01
8.60962932e-01
8.49462091e-01
8.38824553e-01
8.28665445e-01
8.18977585e-01
8.09726235e-01
8.00845551e-01
7.92270381e-01
7.83955649e-01
7.75869555e-01
7.67983693e-01
7.60270427e-01
7.52702406e-01
7.45268454e-01
7.37964233e-01
7.30779450e-01
7.23700855e-01
7.16717730e-01
7.09822981e-01
7.03010221e-01
6.96273841e-01
6.89609089e-01
6.83011553e-01
6.76477136e-01
6.70002740e-01
6.63585900e-01
6.57224440e-01
6.50916083e-01
6.44657998e-01
6.38447713e-01
6.32282846e-01
6.26162518e-01
6.20086610e-01
6.14053230e-01
6.08059771e-01
6.02104741e-01
5.96187786e-01
5.90308559e-01
5.84465838e-01
5.78660724e-01
5.72893065e-01
5.67159556e-01
5.61459794e-01
5.55794909e-01
5.50165448e-01
5.44571618e-01
5.39013809e-01
5.33492243e-01
5.28007482e-01
5.22560843e-01
5.17155645e-01
5.11795249e-01
5.06478144e-01
5.01198883e-01
4.95956804e-01
4.90756344e-01
4.85601473e-01
4.80496170e-01
4.75443902e-01
4.70447470e-01
4.65509279e-01
4.60633884e-01
4.55821417e-01
4.51068766e-01
4.46395552e-01
4.41551707e-01
4.39972627e-01
5.22031064e-01
6.59959707e-01
7.24428308e-01
7.27300437e-01
7.18687014e-01
7.14120049e-01
7.14577034e-01
7.17336709e-01
7.20845193e-01
7.24887851e-01
7.29511184e-01
7.34679027e-01
7.40280957e-01
7.46231113e-01
7.52490556e-01
7.59039850e-01
7.65862136e-01
7.72948973e-01
7.80306530e-01
7.87939445e-01
7.95848906e-01
8.04067892e-01
8.12669877e-01
8.21750713e-01
8.31431027e-01
8.41840201e-01
8.52965420e-01
8.64091432e-01
8.71636205e-01
8.89546172e-01
8.95447357e-01
8.76900109e-01
8.63930399e-01
8.56926645e-01
8.51877938e-01
8.47501680e-01
8.43560971e-01
8.40018033e-01
8.36819995e-01
8.33920070e-01
8.31283356e-01
8.28872192e-01
8.26654320e-01
8.24605534e-01
8.22706766e-01
8.20942393e-01
8.19299372e-01
8.17766480e-01
8.16333358e-01
8.14990710e-01
8.13730629e-01
8.12546308e-01
8.11431776e-01
8.10381685e-01
8.09391182e-01
8.08455885e-01
8.07571855e-01
8.06735541e-01
8.05943712e-01
8.05193422e-01
8.04481983e-01
8.03806932e-01
8.03166007e-01
8.02557123e-01
8.01978358e-01
8.01427933e-01
8.00904196e-01
8.00405617e-01
7.99930774e-01
7.99478344e-01
7.99047093e-01
7.98635867e-01
7.98243588e-01
7.97869244e-01
7.97511889e-01
7.97170634e-01
7.96844644e-01
7.96533132e-01
7.96235360e-01
7.95950631e-01
7.95678299e-01
7.95417762e-01
7.95168442e-01
7.94929781e-01
7.94701250e-01
7.94482352e-01
7.94272613e-01
7.94071587e-01
7.93878850e-01
7.93693997e-01
7.93516646e-01
7.93346431e-01
7.93183005e-01
7.93026039e-01
7.92875217e-01
7.92730237e-01
7.92590814e-01
7.92456674e-01
7.92327554e-01
7.92203205e-01
7.92083388e-01
7.91967872e-01
7.91856439e-01
7.91748877e-01
7.91644985e-01
7.91544568e-01
7.91447440e-01
7.91353422e-01
7.91262342e-01
7.91174033e-01
7.91088335e-01
7.91005095e-01
7.90924164e-01
7.90845398e-01
7.90768658e-01
7.90693813e-01
7.90620732e-01
7.90549293e-01
7.90479377e-01
7.90410872e-01
7.90343672e-01
7.90277682e-01
7.90212818e-01
7.90149035e-01
7.90086255e-01
7.90024872e-01
7.89963768e-01
7.89909563e-01
7.89851683e-01
7.89817129e-01
8.10639175e-01
8.10640285e-01
8.10643985e-01
8.10650335e-01
8.10659209e-01
8.10670587e-01
8.10684506e-01
8.10701005e-01
8.10720115e-01
8.10741874e-01
8.10766322e-01
8.10793507e-01
8.10823483e-01
8.10856307e-01
8.10892044e-01
8.10930765e-01
8.10972545e-01
8.11017468e-01
8.11065623e-01
8.11117105e-01
8.11172017e-01
8.11230471e-01
8.11292582e-01
8.11358479e-01
8.11428293e-01
8.11502167e-01
8.11580253e-01
8.11662712e-01
8.11749713e-01
8.11841436e-01
8.11938074e-01
8.12039829e-01
8.12146914e-01
8.12259558e-01
8.12377999e-01
8.12502492e-01
8.12633306e-01
8.12770725e-01
8.12915049e-01
8.13066599e-01
8.13225710e-01
8.13392740e-01
8.13568066e-01
8.13752091e-01
8.13945238e-01
8.14147959e-01
8.14360730e-01
8.14584060e-01
8.14818488e-01
8.15064586e-01
8.15322963e-01
8.15594267e-01
8.15879190e-01
8.16178467e-01
8.16492882e-01
8.16823275e-01
8.17170540e-01
8.17535638e-01
8.17919594e-01
8.18323509e-01
8.18748566e-01
8.19196036e-01
8.19667287e-01
8.20163795e-01
8.20687154e-01
8.21239087e-01
8.21821463e-01
8.22436310e-01
8.23085837e-01
8.23772450e-01
8.24498781e-01
8.25267713e-01
8.26082412e-01
8.26946370e-01
8.27863444e-01
8.28837912e-01
8.29874536e-01
8.30978638e-01
8.32156189e-01
8.33413920e-01
8.34759461e-01
8.36201507e-01
8.37750027e-01
8.39416530e-01
8.41214409e-01
8.43159380e-01
8.45270063e-01
8.47568774e-01
8.50082602e-01
8.52844934e-01
8.55897644e-01
8.59294406e-01
8.63105642e-01
8.67425963e-01
8.72384133e-01
8.78150704e-01
8.84930950e-01
8.92789839e-01
9.00939449e-01
9.05064648e-01
9.16189187e-01
9.14627501e-01
8.90772598e-01
8.72356804e-01
8.59560521e-01
8.48630728e-01
8.38310013e-01
8.28418187e-01
8.18972429e-01
8.09936070e-01
8.01244592e-01
7.92838434e-01
7.84675556e-01
7.76726384e-01
7.68965424e-01
7.61368414e-01
7.53913013e-01
7.46587793e-01
7.39385889e-01
7.32297108e-01
7.25310094e-01
7.18415834e-01
7.11607307e-01
7.04877908e-01
6.98222271e-01
6.91635845e-01
6.85114212e-01
6.78653692e-01
6.72251736e-01
6.65906032e-01
6.59614437e-01
6.53374670e-01
6.47184027e-01
6.41040264e-01
6.34940546e-01
6.28884332e-01
6.22872125e-01
6.16901748e-01
6.10970987e-01
6.05077957e-01
5.99222000e-01
5.93403204e-01
5.87620210e-01
5.81875412e-01
5.76169541e-01
5.70498624e-01
5.64861327e-01
5.59257585e-01
5.53688186e-01
5.48153971e-01
5.42655292e-01
5.37192334e-01
5.31765631e-01
5.26376162e-01
5.21026543e-01
5.15720043e-01
5.10456088e-01
5.05229325e-01
5.00038334e-01
4.94887865e-01
4.89782495e-01
4.84725845e-01
4.79721061e-01
4.74771186e-01
4.69878871e-01
4.65048596e-01
4.60281206e-01
4.55567828e-01
4.50957142e-01
4.46117043e-01
4.43606507e-01
5.20207791e-01
6.56117902e-01
7.23895039e-01
7.28664109e-01
7.21564857e-01
7.17438406e-01
7.17850406e-01
7.20421751e-01
7.23766576e-01
7.27678850e-01
7.32183251e-01
7.37221735e-01
7.42689744e-01
7.48509748e-01
7.54638392e-01
7.61048685e-01
7.67725378e-01
7.74661240e-01
7.81855274e-01
7.89311600e-01
7.97033335e-01
8.05044425e-01
8.13402548e-01
8.22185364e-01
8.31489561e-01
8.41401602e-01
8.51890575e-01
8.62288139e-01
8.69299192e-01
8.82832883e-01
8.88103353e-01
8.75274976e-01
8.64899915e-01
8.58403186e-01
8.53394810e-01
8.49015235e-01
8.45099226e-01
8.41593903e-01
8.38425641e-01
8.35541759e-01
8.32913265e-01
8.30507463e-01
8.28294396e-01
8.26250377e-01
8.24356540e-01
8.22597041e-01
8.20958885e-01
8.19430940e-01
8.18002636e-01
8.16664569e-01
8.15408787e-01
8.14228485e-01
8.13117727e-01
8.12071180e-01
8.11083988e-01
8.10151779e-01
8.09270637e-01
8.08437031e-01
8.07647741e-01
8.06899833e-01
8.06190631e-01
8.05517681e-01
8.04878730e-01
8.04271701e-01
8.03694679e-01
8.03145891e-01
8.02623694e-01
8.02126563e-01
8.01653085e-01
8.01201939e-01
8.00771896e-01
8.00361808e-01
7.99970600e-01
7.99597265e-01
7.99240860e-01
7.98900499e-01
7.98575349e-01
7.98264627e-01
7.97967596e-01
7.97683561e-01
7.97411867e-01
7.97151901e-01
7.96903083e-01
7.96664858e-01
7.96436705e-01
7.96218127e-01
7.96008657e-01
7.95807850e-01
7.95615284e-01
7.95430558e-01
7.95253291e-01
7.95083120e-01
7.94919701e-01
7.94762705e-01
7.94611818e-01
7.94466741e-01
7.94327190e-01
7.94192892e-01
7.94063587e-01
7.93939025e-01
7.93818969e-01
7.93703191e-01
7.93591472e-01
7.93483602e-01
7.93379381e-01
7.93278615e-01
7.93181120e-01
7.93086716e-01
7.92995233e-01
7.92906506e-01
7.92820375e-01
7.92736686e-01
7.92655293e-01
7.92576052e-01
7.92498825e-01
7.92423480e-01
7.92349888e-01
7.92277928e-01
7.92207480e-01
7.92138433e-01
7.92070681e-01
7.92004130e-01
7.91938691e-01
7.91874320e-01
7.91810930e-01
7.91748925e-01
7.91687123e-01
7.91632110e-01
7.91574433e-01
7.91540502e-01
8.10637383e-01
8.10638465e-01
8.10642107e-01
8.10648413e-01
8.10657252e-01
8.10668595e-01
8.10682475e-01
8.10698930e-01
8.10717992e-01
8.10739698e-01
8.10764090e-01
8.10791214e-01
8.10821123e-01
8.10853877e-01
8.10889539e-01
8.10928179e-01
8.10969873e-01
8.11014703e-01
8.11062760e-01
8.11114138e-01
8.11168940e-01
8.11227276e-01
8.11289263e-01
8.11355027e-01
8.11424702e-01
8.11498429e-01
8.11576358e-01
8.11658651e-01
8.11745477e-01
8.11837015e-01
8.11933457e-01
8.12035004e-01
8.12141870e-01
8.12254281e-01
8.12372477e-01
8.12496710e-01
8.12627249e-01
8.12764376e-01
8.12908392e-01
8.13059614e-01
8.13218379e-01
8.13385041e-01
8.13559977e-01
8.13743587e-01
8.13936294e-01
8.14138546e-01
8.14350820e-01
8.14573619e-01
8.14807482e-01
8.15052977e-01
8.15310711e-01
8.15581329e-01
8.15865517e-01
8.16164008e-01
8.16477581e-01
8.16807070e-01
8.17153366e-01
8.17517420e-01
8.17900252e-01
8.18302955e-01
8.18726704e-01
8.19172758e-01
8.19642475e-01
8.20137318e-01
8.20658865e-01
8.21208824e-01
8.21789045e-01
8.22401534e-01
8.23048472e-01
8.23732239e-01
8.24455429e-01
8.25220887e-01
8.26031731e-01
8.26891397e-01
8.27803674e-01
8.28772761e-01
8.29803324e-01
8.30900564e-01
8.32070310e-01
8.33319116e-01
8.34654387e-01
8.36084538e-01
8.37619181e-01
8.39269361e-01
8.41047864e-01
8.42969595e-01
8.45052076e-01
8.47316094e-01
8.49786560e-01
8.52493650e-01
8.55474389e-01
8.58774713e-01
8.62452171e-01
8.66579382e-01
8.71246546e-01
8.76559172e-01
8.82604834e-01
8.89333776e-01
8.96144559e-01
8.99385315e-01
9.02189057e-01
8.97431517e-01
8.82044445e-01
8.68404212e-01
8.57333903e-01
8.47162180e-01
8.37358920e-01
8.27940902e-01
8.18925707e-01
8.10265206e-01
8.01898666e-01
7.93779313e-01
7.85874101e-01
7.78158147e-01
7.70610399e-01
7.63211797e-01
7.55946218e-01
7.48802825e-01
7.41772377e-01
7.34844062e-01
7.28009006e-01
7.21261471e-01
7.14595091e-01
7.08003078e-01
7.01480507e-01
6.95023264e-01
6.88627241e-01
6.82289298e-01
6.76007349e-01
6.69779180e-01
6.63602566e-01
6.57475149e-01
6.51394532e-01
6.45358776e-01
6.39365374e-01
6.33413280e-01
6.27502763e-01
6.21632431e-01
6.15800465e-01
6.10004907e-01
6.04244951e-01
5.98520775e-01
5.92830933e-01
5.87176121e-01
5.81558223e-01
5.75976410e-01
5.70429053e-01
5.64914943e-01
5.59434508e-01
5.53988685e-01
5.48577803e-01
5.43202002e-01
5.37861775e-01
5.32557842e-01
5.27292828e-01
5.22069793e-01
5.16887343e-01
5.11743323e-01
5.06637771e-01
5.01571823e-01
4.96548417e-01
4.91571121e-01
4.86643410e-01
4.81768944e-01
4.76951053e-01
4.72194206e-01
4.67500050e-01
4.62855797e-01
4.58349054e-01
4.53627545e-01
4.49260757e-01
5.15850185e-01
6.48605348e-01
7.22697723e-01
7.30433814e-01
7.25613661e-01
7.22214482e-01
7.22505306e-01
7.24801052e-01
7.27934405e-01
7.31665188e-01
7.35976960e-01
7.40807623e-01
7.46071074e-01
7.51696050e-01
7.57629174e-01
7.63834180e-01
7.70292305e-01
7.76993297e-01
7.83931292e-01
7.91108666e-01
7.98528333e-01
8.06201481e-01
8.14159071e-01
8.22445937e-01
8.31114911e-01
8.40185828e-01
8.49602258e-01
8.58900567e-01
8.65566324e-01
8.73293611e-01
8.77180653e-01
8.72065857e-01
8.65658880e-01
8.60150283e-01
8.55360919e-01
8.51105838e-01
8.47318766e-01
8.43927909e-01
8.40856399e-01
8.38049787e-01
8.35477263e-01
8.33115128e-01
8.30938702e-01
8.28925574e-01
8.27057716e-01
8.25319534e-01
8.23698685e-01
8.22185323e-01
8.20769606e-01
8.19442578e-01
8.18196562e-01
8.17025030e-01
8.15922260e-01
8.14882971e-01
8.13902359e-01
8.12976115e-01
8.12100401e-01
8.11271753e-01
8.10486998e-01
8.09743250e-01
8.09037878e-01
8.08368465e-01
8.07732786e-01
8.07128790e-01
8.06554580e-01
8.06008407e-01
8.05488647e-01
8.04993792e-01
8.04522441e-01
8.04073287e-01
8.03645111e-01
8.03236775e-01
8.02847214e-01
8.02475428e-01
8.02120483e-01
8.01781499e-01
8.01457650e-01
8.01148159e-01
8.00852293e-01
8.00569364e-01
8.00298714e-01
8.00039723e-01
7.99791809e-01
7.99554425e-01
7.99327055e-01
7.99109207e-01
7.98900417e-01
7.98700243e-01
7.98508266e-01
7.98324087e-01
7.98147327e-01
7.97977627e-01
7.97814644e-01
7.97658049e-01
7.97507533e-01
7.97362798e-01
7.97223561e-01
7.97089549e-01
7.96960505e-01
7.96836181e-01
7.96716340e-01
7.96600754e-01
7.96489207e-01
7.96381491e-01
7.96277404e-01
7.96176756e-01
7.96079361e-01
7.95985042e-01
7.95893628e-01
7.95804956e-01
7.95718865e-01
7.95635203e-01
7.95553824e-01
7.95474583e-01
7.95397345e-01
7.95321976e-01
7.95248350e-01
7.95176343e-01
7.95105836e-01
7.95036718e-01
7.94968882e-01
7.94902229e-01
7.94836669e-01
7.94772148e-01
7.94708561e-01
7.94646318e-01
7.94584101e-01
7.94528830e-01
7.94472178e-01
7.94439242e-01
8.10634245e-01
8.10635309e-01
8.10638912e-01
8.10645184e-01
8.10653996e-01
8.10665309e-01
8.10679152e-01
8.10695563e-01
8.10714576e-01
8.10736226e-01
8.10760553e-01
8.10787607e-01
8.10817438e-01
8.10850106e-01
8.10885675e-01
8.10924213e-01
8.10965797e-01
8.11010509e-01
8.11058438e-01
8.11109679e-01
8.11164334e-01
8.11222513e-01
8.11284332e-01
8.11349918e-01
8.11419402e-01
8.11492926e-01
8.11570640e-01
8.11652703e-01
8.11739285e-01
8.11830565e-01
8.11926732e-01
8.12027988e-01
8.12134545e-01
8.12246629e-01
8.12364476e-01
8.12488340e-01
8.12618487e-01
8.12755198e-01
8.12898773e-01
8.13049526e-01
8.13207792e-01
8.13373925e-01
8.13548298e-01
8.13731309e-01
8.13923378e-01
8.14124951e-01
8.14336501e-01
8.14558529e-01
8.14791567e-01
8.15036182e-01
8.15292975e-01
8.15562586e-01
8.15845695e-01
8.16143028e-01
8.16455359e-01
8.16783514e-01
8.17128372e-01
8.17490878e-01
8.17872040e-01
8.18272939e-01
8.18694734e-01
8.19138670e-01
8.19606088e-01
8.20098430e-01
8.20617252e-01
8.21164234e-01
8.21741197e-01
8.22350111e-01
8.22993119e-01
8.23672552e-01
8.24390952e-01
8.25151097e-01
8.25956033e-01
8.26809103e-01
8.27713994e-01
8.28674775e-01
8.29695957e-01
8.30782557e-01
8.31940172e-01
8.33175074e-01
8.34494315e-01
8.35905864e-01
8.37418764e-01
8.39043330e-01
8.40791387e-01
8.42676568e-01
8.44714671e-01
8.46924101e-01
8.49326406e-01
8.51946873e-01
8.54815219e-01
8.57966041e-01
8.61438822e-01
8.65276706e-01
8.69519617e-01
8.74184845e-01
8.79226663e-01
8.84480527e-01
8.89542526e-01
8.92107284e-01
8.92173412e-01
8.86795523e-01
8.75559000e-01
8.64446429e-01
8.54452747e-01
8.44949067e-01
8.35727291e-01
8.26826655e-01
8.18252275e-01
8.09961489e-01
8.01909577e-01
7.94065304e-01
7.86406580e-01
7.78914566e-01
7.71572181e-01
7.64364218e-01
7.57277520e-01
7.50302649e-01
7.43431111e-01
7.36653051e-01
7.29961228e-01
7.23350652e-01
7.16815661e-01
7.10350700e-01
7.03951226e-01
6.97613467e-01
6.91333863e-01
6.85109572e-01
6.78938456e-01
6.72818303e-01
6.66746878e-01
6.60721975e-01
6.54741596e-01
6.48803988e-01
6.42907531e-01
6.37050504e-01
6.31232214e-01
6.25452279e-01
6.19709083e-01
6.14001036e-01
6.08327479e-01
6.02688175e-01
5.97081783e-01
5.91506093e-01
5.85962540e-01
5.80453821e-01
5.74979512e-01
5.69538634e-01
5.64131000e-01
5.58756971e-01
5.53416953e-01
5.48111041e-01
5.42839657e-01
5.37603177e-01
5.32402699e-01
5.27242470e-01
5.22124760e-01
5.17051375e-01
5.12022766e-01
5.07034477e-01
5.02085447e-01
4.97179007e-01
4.92319388e-01
4.87511201e-01
4.82758809e-01
4.78066980e-01
4.73437570e-01
4.68864004e-01
4.64457388e-01
4.59974762e-01
4.54252827e-01
5.12745964e-01
6.43040627e-01
7.21722272e-01
7.30910369e-01
7.27695225e-01
7.25067297e-01
7.25410730e-01
7.27591162e-01
7.30631759e-01
7.34260822e-01
7.38440049e-01
7.43122266e-01
7.48230534e-01
7.53695269e-01
7.59462219e-01
7.65494433e-01
7.71766475e-01
7.78261875e-01
7.84973497e-01
7.91899303e-01
7.99037670e-01
8.06391344e-01
8.13971516e-01
8.21794294e-01
8.29874582e-01
8.38183914e-01
8.46641901e-01
8.55018752e-01
8.61668888e-01
8.67302919e-01
8.70038277e-01
8.67839306e-01
8.63869765e-01
8.59578566e-01
8.55404343e-01
8.51548824e-01
8.48048003e-01
8.44861783e-01
8.41947987e-01
8.39270008e-01
8.36798287e-01
8.34514778e-01
8.32401671e-01
8.30440643e-01
8.28615931e-01
8.26914118e-01
8.25323407e-01
8.23834713e-01
8.22439800e-01
8.21130531e-01
8.19899658e-01
8.18740950e-01
8.17649147e-01
8.16619374e-01
8.15647067e-01
8.14728113e-01
8.13858857e-01
8.13035962e-01
8.12256357e-01
8.11517241e-01
8.10816040e-01
8.10150394e-01
8.09518127e-01
8.08917227e-01
8.08345839e-01
8.07802246e-01
8.07284854e-01
8.06792178e-01
8.06322838e-01
8.05875545e-01
8.05449096e-01
8.05042366e-01
8.04654303e-01
8.04283920e-01
8.03930289e-01
8.03592542e-01
8.03269860e-01
8.02961472e-01
8.02666655e-01
8.02384726e-01
8.02115038e-01
8.01856979e-01
8.01609970e-01
8.01373468e-01
8.01146959e-01
8.00929955e-01
8.00721991e-01
8.00522627e-01
8.00331447e-01
8.00148053e-01
7.99972067e-01
7.99803131e-01
7.99640902e-01
7.99485053e-01
7.99335276e-01
7.99191272e-01
7.99052760e-01
7.98919468e-01
7.98791139e-01
7.98667525e-01
7.98548389e-01
7.98433506e-01
7.98322658e-01
7.98215637e-01
7.98112243e-01
7.98012283e-01
7.97915575e-01
7.97821939e-01
7.97731206e-01
7.97643211e-01
7.97557796e-01
7.97474807e-01
7.97394098e-01
7.97315526e-01
7.97238953e-01
7.97164246e-01
7.97091278e-01
7.97019924e-01
7.96950066e-01
7.96881588e-01
7.96814381e-01
7.96748341e-01
7.96683369e-01
7.96619397e-01
7.96556293e-01
7.96494446e-01
7.96432416e-01
7.96377550e-01
7.96320702e-01
7.96287173e-01
8.10629703e-01
8.10630754e-01
8.10634324e-01
8.10640559e-01
8.10649330e-01
8.10660596e-01
8.10674385e-01
8.10690732e-01
8.10709671e-01
8.10731238e-01
8.10755472e-01
8.10782422e-01
8.10812140e-01
8.10844683e-01
8.10880115e-01
8.10918505e-01
8.10959929e-01
8.11004469e-01
8.11052212e-01
8.11103254e-01
8.11157696e-01
8.11215647e-01
8.11277224e-01
8.11342550e-01
8.11411758e-01
8.11484988e-01
8.11562390e-01
8.11644122e-01
8.11730352e-01
8.11821258e-01
8.11917028e-01
8.12017863e-01
8.12123973e-01
8.12235583e-01
8.12352928e-01
8.12476258e-01
8.12605839e-01
8.12741950e-01
8.12884887e-01
8.13034964e-01
8.13192511e-01
8.13357879e-01
8.13531440e-01
8.13713587e-01
8.13904737e-01
8.14105330e-01
8.14315836e-01
8.14536751e-01
8.14768602e-01
8.15011949e-01
8.15267386e-01
8.15535545e-01
8.15817101e-01
8.16112768e-01
8.16423311e-01
8.16749544e-01
8.17092336e-01
8.17452615e-01
8.17831375e-01
8.18229679e-01
8.18648666e-01
8.19089561e-01
8.19553677e-01
8.20042428e-01
8.20557338e-01
8.21100049e-01
8.21672339e-01
8.22276130e-01
8.22913508e-01
8.23586736e-01
8.24298280e-01
8.25050829e-01
8.25847321e-01
8.26690975e-01
8.27585327e-01
8.28534268e-01
8.29542096e-01
8.30613564e-01
8.31753953e-01
8.32969141e-01
8.34265694e-01
8.35650970e-01
8.37133238e-01
8.38721823e-01
8.40427266e-01
8.42261509e-01
8.44238097e-01
8.46372378e-01
8.48681672e-01
8.51185295e-01
8.53904354e-01
8.56860807e-01
8.60075326e-01
8.63561168e-01
8.67312033e-01
8.71278965e-01
8.75332634e-01
8.79211997e-01
8.82615280e-01
8.84130825e-01
8.82897261e-01
8.77552449e-01
8.68640371e-01
8.59396364e-01
8.50564269e-01
8.41905246e-01
8.33372221e-01
8.25039534e-01
8.16933722e-01
8.09037789e-01
8.01328492e-01
7.93787982e-01
7.86402217e-01
7.79158194e-01
7.72043333e-01
7.65046192e-01
7.58156758e-01
7.51366943e-01
7.44669521e-01
7.38057222e-01
7.31524217e-01
7.25065354e-01
7.18675633e-01
7.12350761e-01
7.06086757e-01